/*--------------------------------*- C++ -*----------------------------------*\
  =========                 |
  \\      /  F ield         | OpenFOAM: The Open Source CFD Toolbox
   \\    /   O peration     | Website:  https://openfoam.org
    \\  /    A nd           | Version:  7
     \\/     M anipulation  |
\*---------------------------------------------------------------------------*/
FoamFile
{
    version     2.0;
    format      ascii;
    class       volScalarField;
    location    "0.2";
    object      p;
}
// * * * * * * * * * * * * * * * * * * * * * * * * * * * * * * * * * * * * * //

dimensions      [0 2 -2 0 0 0 0];

internalField   nonuniform List<scalar> 
2016
(
2280.71
2277.08
1007.4
991.793
1870.97
1607.73
328.962
1257.32
1992.06
1780.03
1740.46
419.663
478.832
1867.45
1912.84
194.594
125.81
1875.91
589.265
368.693
2001.11
206.073
303.362
1486.32
1522.99
1531.16
1073.75
987.028
1890.27
1775.89
1965.57
735.998
1104.4
1448.8
1477.12
182.374
109.998
1649.61
1510.43
851.541
466.649
303.559
1808.88
1861.27
2248.04
1518.46
1202.33
565.269
456.149
1677.01
876.267
925.054
237.656
151.651
1506.72
1733.54
187.933
1211.45
151.519
116.901
1479.14
1569.84
1139.37
983.442
2139.48
1578.03
1094.47
1817.87
2078.67
821.186
639.461
1790.24
873.068
705.396
1417.25
2142.34
2125.8
2227.6
2257.56
1698.49
1210.46
1155.4
590.806
2316.19
1408.86
1060.86
959.279
957.499
1192.95
1922.26
2258.25
646.455
446.82
2312.72
2043.27
1102.23
1272.12
1428.39
1471.3
362.404
235.432
1245.85
2168.86
1929.53
110.944
63.5772
1791.72
1469.25
1122.67
456.202
693.642
2195.53
2199.31
1116.68
2211.87
1888.7
2159.32
2204.27
278.873
1082.33
2229.91
2217.66
1916.66
1387.14
1650.03
1536.37
2161.4
1987.42
1207.55
1473.26
2085.29
478.083
560.599
301.383
1590.41
891.777
265.068
1283.61
1174.41
1419.1
173.293
131.653
1843.42
2338.05
2119.33
2205.7
898.841
771.531
726.531
1541.49
1581.62
1514.8
1161.41
855.363
1768.41
2119.38
1861.32
1074.41
2313.84
2160.2
366.565
592.104
1505.03
1950.16
2071.41
2130.47
82.9125
172.812
566.491
834.016
602.758
580.93
1166.23
1904.8
1167.34
545.672
588.162
1027.55
1760.79
1440.35
643.773
837.137
2241.13
2276.59
908.106
1428.71
2287.05
788.659
3.77428
70.7072
1339.63
1328.81
2097.36
398.924
631.61
624.514
824.59
2254.78
1861.41
2232.29
2168.88
1167.47
1422.33
2295.67
613.023
1849.03
1515.34
704.169
1854.27
2213.23
2218.11
2304.58
775.149
723.226
1502.75
227.83
324.209
1507.61
1200.8
1584.32
1570.28
1794.96
2016.28
2128.8
2235.79
2190.21
544.298
154.146
86.7165
2264.54
950.123
2197.58
2153.27
1942.37
1753.03
1879.05
406.6
287.387
183.192
228.045
909.778
516.292
305.043
1793.41
504.394
427.411
313.661
2054.07
140.891
213.149
1521.27
1390.48
1986.89
2035.68
57.1502
129.949
969.165
70.8161
24.9957
1748.88
1792.42
470.915
1100.62
39.6889
2082.04
857.703
1968.14
1942.4
2292.25
2279.95
1022.06
1992.93
2050.13
468.62
465.549
1231.22
1044.33
1801.86
876.55
729.207
2284.53
2298.65
1479.96
1073.95
1895.68
560.971
1111.97
1200.96
1947.1
2032.15
2110.42
1369.8
2139.42
2315.21
2233.2
1429.77
1455.93
755.29
751.425
1085.76
2185.48
1229.12
2060.25
851.039
2275.53
2298.77
2185.58
2298.05
1039.31
1927.82
1259.95
2312.16
2354.82
1802.45
29.7854
110.576
1905.96
1231.77
1290
507.914
594.27
2275.61
1122.68
1567.82
1883.29
467.652
703.079
1504.94
2016.58
1581.85
2156.5
2190.82
2156.27
1923.67
1444.96
1741.18
1953.65
2142.42
183.446
2138.48
1591.87
2248.55
2094.42
1949.32
1919.57
2080.27
2096.83
1075.34
1308.51
1386.69
2244.78
670.754
505.124
1766.73
2210.15
2233.41
1960.32
1412.95
1420.77
2226.71
273.66
172.294
1977.62
1093.48
1811.9
512.828
336.819
401.969
2294.02
621.81
195.414
72.4607
219.966
175.972
642.686
1616.27
1368.37
2206.32
2240.9
1491.44
1466.93
2111.26
2034.12
2204.78
1361.38
2072.25
2198.26
2189.97
2114.74
2149.99
1846.76
2158.01
1537.54
2048.49
2319.59
481.703
637.221
1602.35
1984.54
2164.47
1913.66
1629.66
181.441
1218.67
726.87
2140.35
1938
1972.56
2316.16
2229.64
1578.81
1596.45
1984.97
2106.14
1833.56
354.559
229.062
1060.17
1231.19
2055.01
1971.3
2216
2332.7
1596.78
597.057
2127.14
1512.92
2267.43
2302.91
2150.36
847.808
677.434
1805.44
1967.37
1557.32
955.245
1386.52
2125.35
2322.61
801.99
674.775
2341.25
933.581
678.244
1433.9
895.765
1334.6
1711.98
1248.04
246.768
159.127
596.35
2048.98
1993.68
1641.99
1482.79
1028.85
1518.7
896.281
781.051
1785.95
723.045
75.7867
40.473
2311.45
1829.07
1.71617
83.3695
2108.8
2147.07
1808.68
1491.25
2299.12
2157.36
52.4172
2313.4
2172.76
1474.83
2188.33
208.479
313.835
2180.4
2239.08
2237.89
707.901
2312.27
1977.59
2252.79
2143.26
2338.57
2223.94
2313.73
2287.72
2280.89
2203.13
2274.06
1044.33
147.466
220.573
2089.44
1180.36
1225.9
947.769
1638.77
1542.32
2226.61
1808.66
1142.19
1841.64
1847.16
960.628
1156.01
2084.74
2040.31
516.785
311.363
1767.06
1202.07
364.632
2207.1
2164.56
2136.82
1077.77
1394.42
2074.49
22.2923
91.3796
1317.88
1808.71
97.4907
352.009
1216.66
378.36
360.947
1472.86
1479.35
1223.16
919.019
1859.35
2265.44
2292.42
2000.7
1981.34
2161.55
2113.07
1481.92
648.808
1759.38
2299.71
2165.39
1952.99
198.85
309.926
2128.83
1178.65
1542.78
1578.29
324.817
520.084
1082.31
2289.76
1113.71
443.245
1876.16
1980.11
164.53
1190.52
1275.16
176.708
1667.95
233.806
117.283
561.675
415.053
1676.3
1160.1
2212.47
2282.73
2104.07
443.587
1731.01
1338.81
984.549
899.897
1281.56
2089.73
775.25
2248.08
2307.3
1440.7
623.4
1092.5
1225.99
1025.92
1973.18
2256.84
26.465
112.823
1123.3
1677.71
203.447
152.652
2243.72
1506.89
2142.4
2298.53
1082.03
1198.64
2198.34
1714.07
2313.94
1522.2
2069.8
2035.37
2221.06
1411.49
1478.05
284.249
403.38
1383.57
1645.39
2147.24
2018.34
663.024
986.505
1206.61
1871.63
2230.66
1222.7
415.186
2187.91
1377.03
1421.99
607.134
451.064
1283.87
1318.6
1014.38
1101.35
200.72
36.0716
1594.61
1827.62
1683.5
1556.69
2263.93
2174.28
1639.7
1604.08
1001.29
1082.86
2229.85
2210.58
578.261
2352.88
542.766
776.699
83.5841
149.491
1133.47
1715.25
1977.43
1990.54
2176.43
2290.1
640.301
467.081
788.305
2220.39
944.567
514.847
369.626
1039.46
382.206
255.855
1978.55
2202.3
2342.13
1322.09
1264.75
1804.46
1795.75
2215.85
2175.67
2273.23
1919.87
2009.82
726.892
540.954
2158.87
2164.11
689.737
1004.51
868.944
1767.15
572.899
2263.6
497.264
2037.11
1480.66
1221.58
1853.45
2164.27
472.483
1850.82
1910.67
1141.42
2103.38
893.674
2280.02
-19.7587
30.5559
1214.77
302.273
825.521
1212.44
1290.47
2114.85
1232.01
680.42
550.447
335.112
1831.31
1815.34
2091.66
906.211
1837.31
1968.18
2172.22
697.544
2099.88
1732.75
995.472
47.7803
129.97
1946.36
1072.74
667.914
1786.87
523.383
1168.71
1750
1670.79
1344.81
1200.14
459.438
525.041
307.213
1489.06
2104.83
2275.75
577.655
1104.69
1430.34
854.275
616.787
2118.07
961.294
1844.84
1331.17
548.113
1168.75
588.782
369.506
1446.32
1498.68
9.84367
57.2323
1047.91
2058.04
1734.38
2174.02
721.709
559.063
1530.63
1563.58
1664.75
1639.98
1415.9
1219.05
1683.84
1243.98
1718.61
1740.33
2137.33
1061.8
1809.78
1196.45
1169.95
835.344
1570.42
1756.48
760.958
2191.28
1434.43
2217.48
116.17
88.6057
1207.91
1317.04
2217.2
2263.28
286.721
712.674
1464.91
2151.76
2055.91
875.974
2304.32
134.671
227.736
304.644
1875.89
2215.67
2271.16
793.633
1864.97
2192.5
222.562
2257.23
1171.86
2286.02
1431.28
1801.9
447.495
318.57
1921.92
1972.02
2198.02
1402.66
1463.55
400.017
2211.67
753.465
1790.53
1835.68
2195.5
1776.07
895.766
2316.2
2099.2
1018.22
976.817
2012.82
1215.93
2311.57
2273.82
2147.09
73.486
144.621
1594.85
1389.86
1278.65
1228.02
514.476
368.349
831.265
846.653
443.003
597.46
80.4258
208.441
2130.34
1928.33
2157.33
1077.58
2267.97
471.466
1887.9
1553.17
1500.38
88.1043
174.942
1467.26
1342.27
410.969
2232.78
2100.47
2361.38
2025.26
2177.82
1223.23
2198.74
2158.26
2165.32
209.659
134.441
224.783
138.332
1292.8
471.778
278.088
2225.16
2184.76
2232.42
1967.78
1551.13
1547.68
1523.09
1543.7
1567.48
1987.91
1719.66
1685.01
1929.41
2262.11
2269.08
1597.26
1023.37
1422.19
105.396
74.2524
2113.65
2264.54
711.594
159.011
91.9074
2040.12
405.477
243.679
1830.59
1690.66
1836.66
359.389
200.863
1779.85
2094.55
2065.09
1900.9
1853.03
950.442
687.783
257.396
1235.66
1774.65
1517.47
327.437
182.513
206.614
371.149
2015.16
660.334
2245.25
2101.67
1546.36
919.413
670.1
953.914
1853.02
2229.81
1044.43
2244.29
1173.15
2001.27
1245.51
1559.61
2188.86
1426.23
1637.98
1480.15
1861.36
2154.55
285.099
240.924
148.854
236.814
2118.7
1884.27
2188.01
965.311
302.649
1539.96
1789.12
1947.1
379.03
1329.97
989.75
2306.43
2008.86
1490
1496.34
1306.08
1517.11
251.673
1958.36
783.988
1674.04
2192.46
2281.83
1636.45
76.2278
2219.1
367.167
1221.94
213.065
1589.9
1509.23
1078.7
2220.53
101.427
2186.18
2198.27
1633.2
1824.36
1853.22
1126.09
1331.75
1824.29
1590.41
1954.26
219.567
145.718
2229.73
2144.46
2173.77
171.688
2054.16
262.93
115.234
806.641
2337.54
1873.4
1941.69
458.539
915.451
1952.71
913.376
997.67
1974.99
269.399
378.77
1964.82
471.577
2182.55
2054.05
1707.66
1580.89
1848.73
1250.37
2239.64
1404.42
2189.73
1140.92
2101.78
1665.59
807.447
1911.22
456.201
2101.7
755.28
799.471
547.669
2079.32
2290.67
2158.57
1411.66
1409.93
2152.91
1597.14
1241.64
1425.98
1551.08
2230.18
971.441
1828.08
1510.18
2036.1
2196.71
2125.07
1436.08
1303
595.898
387.322
2027.95
503.978
312.504
1476.87
2049.92
2101.83
78.1525
120.444
1580.69
885.03
1609.04
2301.85
1696.76
1252.67
265.034
481.738
1658.5
1505.32
2090.86
1879.5
1586.66
1992.59
1067.31
1049.59
2109.98
1802.7
363.451
239.236
1130.36
1334.31
2199.44
1337.83
1770.86
1187.54
1918.98
2010.54
1113.05
1734.25
1087.33
2198.17
1729.08
566.775
220.166
96.2808
1368.54
2195.46
1466.51
2119.82
1030.37
168.155
183.089
2051.83
1455.92
437.397
-65.759
-106.78
1844.8
35.1874
1860.78
2264.62
512.534
461.655
720.973
1550.77
943.204
1218.1
1151.47
1932.94
1777.23
2171.98
1793.09
1818.7
1803.34
2124.93
767.721
942.337
1917.27
1538.36
1001.08
108.683
386.169
262.98
1123.09
857.151
2222.03
1565.36
834.416
2200.11
561.534
1813.02
135.117
210.149
316.397
1499.78
1615.55
117.821
2159.65
1620.35
1717.75
1892.34
1956.01
868.944
1935.79
864.085
2254.16
725.12
1891.45
1909.81
1408.97
148.609
251.147
1368.96
1260.16
1150.79
2284.16
975.525
1284.28
592.266
846.844
569.581
839.192
2062.56
1122.07
1600.01
2110.16
2137.69
2094.34
1519.56
1315.96
1297.4
1666.16
1638.15
329.215
520.757
2096.59
916.659
656.7
295.558
360.078
239.137
2030.77
286.587
1116.04
2245.42
1831.76
1568.15
1721.47
2216.47
2203.07
1239.36
1355.66
2218.77
262.534
389.513
2315.81
1563
266.115
380.754
1948.57
1960.28
2236.26
2240.57
16.3467
428.938
600.988
1071.01
1409.81
1408.95
1957.49
2153.52
2290.73
1878.49
2201.91
2150.72
2136
1756.75
1849.57
816.227
2100.17
903.894
2112.74
380.858
2036.33
1535.11
836.863
615.302
1418.78
1008.51
906.629
180.243
114.082
1518.5
144.637
169.205
2187.63
2286.03
945.518
80.7573
926.037
2272.1
965.336
2260.01
2260.91
1327.35
1013.6
147.667
100.987
1941.65
497.255
305.214
1708.02
1746.57
715.743
1180.1
1249.81
2218.3
2113.53
2198.5
1315.83
1506.51
1965.81
248.687
133.939
1459.54
2285.59
2280.91
2057.12
1495.84
512.861
610.808
748.972
704.401
853.223
2306.88
1333.95
1383.07
1188.45
1489.82
1487.14
1589.58
1729.61
1644.78
1181.51
2057.44
1853.07
1639.6
163.695
122.195
1454.85
370.981
241.483
1714.91
1454.47
2185.45
2028.11
2174.86
2240.24
466.882
467.247
876.555
650.31
1710.56
1303.28
1554.13
2111.83
2200.92
787.803
1852.76
1445.94
901.254
953.915
156.328
110.905
1100.85
1449.68
2108.46
2033.88
1193.18
2308.92
852.166
1031.44
1651.41
1585.98
697.288
684.869
604.963
1753.64
313.132
196.204
2093.25
1132.94
1536.3
1526.49
1369.2
1293.4
468.653
1544.59
1551.77
743.34
1616.83
229.724
151.868
1351.14
2110.84
1668.47
1956.64
2164.67
1577.71
2196.28
1922.67
172.267
188.333
1231.77
2029.97
1584.36
289.3
468.185
1343.29
1441.59
239.63
2027.87
485.057
700.152
1116.46
2220.12
2138.43
448.984
670.067
2141.55
2067.44
144.495
1639.56
1227.86
1389.76
2182
1670.93
1129.57
1056.06
2132.83
668.116
927.841
1720.99
1878.94
1640.45
2080.5
2246.98
1961.55
1796.73
270.265
410.248
136.54
166.032
1673.53
692.635
2119.07
1820.18
2075.35
797.347
1321.69
892.831
2309.16
2118.31
1891.31
1395.87
879.381
1198.77
2083.67
2021.04
1184.56
181.617
149.498
1680.42
1635.18
2093.87
1499.19
120.202
95.5206
1940.28
1445.78
890.083
467.763
1416.91
282.301
2179.67
2166.47
2121.85
225.164
307.863
904.823
647.811
494.195
294.925
1284.69
1971.1
251.731
390.927
1402.7
1944.18
1986.63
2102.98
2188.82
517.254
358.739
240.617
385.752
389.011
244.123
275.275
168.429
212.756
155.986
284.656
203.4
2076.87
1981.28
1275.05
1033.96
347.461
1785.62
2172.35
2081.54
2271.43
2264.6
1069.62
1020.5
317.158
1320.51
413.895
243.747
2259.3
2281.18
302.323
135.407
791.198
426.731
301.625
1074.36
465.128
287.629
262.22
421.364
442.963
277.082
1641.14
1779.26
425.684
540.913
401.011
1970.15
1674.61
382.847
1788.84
1422.22
2015.67
197.718
99.8114
598.367
-23.76
-83.3341
1877.11
1515.19
607.338
1890.39
2031.26
891.367
680.311
1859.55
1503.23
1524.97
406.936
1886.72
2173.04
2181.18
2066.05
2067.24
1928.29
2025.54
1284.67
183.194
118.118
1786.38
1593.19
2320.29
2161.81
1897.72
2122.48
1155.98
806.994
1416.55
634.766
1352.08
1447.15
2294.48
1738.02
639.262
1819.5
2294.94
2279.38
2188.43
2148.17
2218.94
1316.48
899.053
1127.66
2266.84
2092.11
151.129
114.001
162.474
103.553
1499.07
1371.64
2145.31
153.552
152.591
1908.89
1944.32
2001.65
1724.31
133.103
90.3677
1201.08
445.899
1305.91
2316.58
2172.18
1782.93
2237.03
571.022
2033.12
2121.42
2275.46
822.854
1672.37
789.572
1110.46
2120.8
2308.14
2321.49
2137.74
872.927
1059.88
1732.78
1586.6
440.594
677.481
2228.9
1680.15
950.78
1930.79
385.454
329.037
616.387
658.651
609.209
518.472
1138.28
448.591
997.768
1889.6
948.672
715.525
727.546
379.561
2299.95
2252.25
1772.47
2350.78
447.616
1066.3
195.725
89.8052
2281.32
2291.53
274.223
1554.8
1613.41
1204.69
1219.76
2186.7
2211.89
1970.05
575.01
800.69
579.783
2200.89
562.899
1081.91
2030.91
2234.32
813.139
743.471
2034.37
2250.07
2006.46
2306.14
2275.85
1971.69
1931.21
1886.33
1935.18
1632.51
770.344
764.596
715.698
1249.15
1879.88
2267.34
798.065
736.38
2237.2
2104.17
788.124
791.684
2044.36
1882.84
978.239
1928.89
146.559
229.207
1950.31
2020.04
2281.67
2289.92
1346.63
1691.32
712.57
447.78
-96.948
-21.6819
2018.09
631.67
863.407
163.154
116.15
1670.3
152.92
315.216
423.691
340.483
810.3
2059.45
1163.57
1893.05
324.097
2224.98
406.967
1917.12
1825.2
2002
2111.4
1699.07
1637.6
1911.36
2029.83
1958.3
1383.18
2015.39
703.924
457.216
1861.17
1149.41
950.942
2129.74
1997.01
1320.62
764.559
2274.49
112.847
140.08
142.271
2229.52
2248.9
946.9
1891.63
756.725
2229.38
2238.63
589.861
725.168
965.773
1955.83
1169.19
1114
2131.48
1487.49
1422.73
660.869
1313.23
2150.1
191.762
123.865
1950.82
1356.57
2025.64
687.16
724.126
420.181
660.526
280.492
893.25
547.23
801.631
1174.46
541.361
1005.91
726.79
1171.45
2006.89
2157.65
2249.23
2156.23
2103.23
167.001
1802.57
1228.61
2034.24
2228.53
2201.25
1781.43
681.313
2082.5
1441.17
1525.24
575.544
361.289
1502.36
1326.5
2180.03
2094.61
2079.07
1880.61
196.146
93.6279
654.628
1894.27
2008.72
993.26
1227.78
124.768
199.997
439.801
1995.18
168.361
333.234
641.355
595.088
256.325
279.418
2318.31
2101.66
1926.04
2051.87
320.829
545.731
1136.18
525.686
301.049
740.186
858.14
2103.5
2233.29
1843.29
932.756
2092.27
2085.56
30.0731
104.557
1776.15
1787.26
2188.09
2077.78
2087.48
618.281
1786.14
1339.47
866.746
601.797
2045.3
2041.97
1570.71
1506.13
271.441
361.182
1742.04
1863.35
2197.54
2196.85
351.601
479.931
2306.65
1966.4
1587.43
1754.01
175.798
1334.36
2047.84
2082.14
684.997
2114.63
2151.77
2017.71
2022.32
1979.25
591.063
701.077
2225.06
597.888
2151.24
2056.05
646.893
768.186
1263.45
1554.93
1460.72
1657.1
2059.12
700.754
1756.55
2139.81
1503.45
2038.83
1689.27
1805.8
867.879
729.932
1528.79
1597.5
1954.43
291.074
215.344
2158.88
880.107
1587.48
785.918
1005.54
1067.67
2119.9
1756.47
1747.97
2100.77
1333.87
123.501
118.582
1174.34
759.293
695.493
1298.99
2175.49
2270.1
505.919
748.895
1934.87
2218.02
2113.47
2244.2
2179.92
865.62
1908.57
1309.36
2168.9
1049.6
1991.03
1659.47
1621.46
1890.01
1926.82
188.909
897.527
844.383
1867.26
1965.43
788.168
814.702
560.074
264.19
125.8
2090.96
2095.55
321.232
408.742
185.34
126.575
1637.58
1382.9
2137.92
2068.56
2269.96
2111.17
2000.4
1940.5
1891.22
885.405
855.347
1612.22
2238.58
595.432
692.568
576.217
1214.82
1101.6
977.905
143.086
1804.89
1739.77
2280.76
659.431
485.443
305.359
1000.17
1044.72
427.312
469.482
952.041
1057.53
526.036
2001.29
1955.22
968.194
1105.44
981.509
2024.67
850.332
1001.14
801.916
790.012
866.285
650.697
678.177
912.009
2154.3
2018.29
915.129
958.499
2100.41
1994.74
1637.87
2045.73
1957.8
1790.99
1590.14
1913.92
1904.58
)
;

boundaryField
{
    frontandback
    {
        type            empty;
    }
    simetry
    {
        type            symmetry;
    }
    inlet
    {
        type            zeroGradient;
    }
    outlet
    {
        type            fixedValue;
        value           uniform 0;
    }
}


// ************************************************************************* //
