/*--------------------------------*- C++ -*----------------------------------*\
  =========                 |
  \\      /  F ield         | OpenFOAM: The Open Source CFD Toolbox
   \\    /   O peration     | Website:  https://openfoam.org
    \\  /    A nd           | Version:  7
     \\/     M anipulation  |
\*---------------------------------------------------------------------------*/
FoamFile
{
    version     2.0;
    format      ascii;
    class       surfaceScalarField;
    location    "0.2";
    object      phi;
}
// * * * * * * * * * * * * * * * * * * * * * * * * * * * * * * * * * * * * * //

dimensions      [0 3 -1 0 0 0 0];

internalField   nonuniform List<scalar> 
2956
(
1.88922e-06
-4.76287e-07
-1.41294e-06
-4.55867e-08
-3.66984e-07
4.12571e-07
1.90829e-05
-3.04222e-05
1.13393e-05
-8.1783e-07
1.99008e-05
4.05379e-07
-4.66935e-06
4.26397e-06
1.27383e-05
-1.11219e-05
-1.61643e-06
-2.69513e-05
8.93479e-06
1.80165e-05
5.62351e-05
-1.16259e-05
-4.46092e-05
2.11572e-06
2.26357e-06
-4.37928e-06
-1.01381e-05
5.07161e-06
5.06651e-06
3.12717e-06
-3.63558e-07
-2.76361e-06
-5.62764e-06
4.88563e-06
7.42014e-07
-6.06966e-06
4.41997e-07
-1.53204e-05
4.45522e-06
1.08652e-05
-6.79665e-06
-8.5237e-06
-2.09627e-05
-7.142e-06
-1.50384e-05
-6.69553e-06
-8.77404e-06
2.74177e-06
6.03228e-06
3.31432e-05
-3.06766e-05
-2.46664e-06
2.92963e-05
-2.83205e-05
-9.75774e-07
-8.87621e-07
-2.63879e-06
3.52641e-06
-1.02552e-05
1.5478e-05
-5.22279e-06
2.66952e-06
2.21268e-06
-4.8822e-06
4.18831e-06
1.69732e-06
-5.88563e-06
2.23362e-05
-1.81479e-05
-4.54835e-06
1.72867e-05
-5.11181e-06
1.96332e-05
-1.45214e-05
-1.0348e-05
5.23619e-06
2.75609e-07
-7.0723e-06
1.43505e-05
-6.53376e-06
-7.8167e-06
1.46261e-05
-1.44611e-06
2.881e-06
-1.43489e-06
3.08572e-05
-1.57516e-05
-1.51056e-05
-2.51864e-07
9.95683e-06
-9.70497e-06
-7.84106e-06
7.5892e-06
1.63813e-05
-1.895e-05
2.56877e-06
2.3864e-06
-1.26054e-05
1.0219e-05
1.91256e-05
5.55451e-06
-2.46802e-05
5.01238e-06
1.41133e-05
-6.15464e-06
-4.19335e-06
-1.77202e-05
3.74705e-06
1.39731e-05
-1.06478e-05
-2.39324e-07
1.08871e-05
-3.97202e-07
1.8583e-06
-1.4611e-06
-5.53434e-06
-3.23972e-06
-2.00642e-07
-1.65074e-06
1.85138e-06
-1.49177e-06
4.83053e-06
-3.33876e-06
3.38425e-05
-2.57033e-05
-8.13918e-06
4.39058e-06
3.63756e-06
-8.02814e-06
2.29327e-06
2.09731e-06
-7.36089e-06
7.7663e-06
4.18058e-06
-5.42986e-07
-1.97406e-06
1.03897e-05
-3.13524e-05
9.53048e-06
-2.45689e-05
5.92059e-07
-1.1714e-05
5.62351e-05
-1.39734e-05
-1.2978e-05
-7.23232e-06
-4.83016e-05
5.55339e-05
-2.36663e-06
-9.1311e-06
2.24563e-05
-1.95076e-05
2.5366e-05
-5.06608e-06
-2.02999e-05
4.36015e-06
-5.85193e-06
2.9807e-05
1.05027e-06
-8.74805e-06
3.8555e-05
6.18819e-06
-1.23205e-06
-4.95613e-06
4.23816e-06
1.21985e-07
-2.29839e-05
3.68237e-06
-8.35173e-06
-1.41928e-07
-7.45643e-07
-3.40072e-05
1.65181e-05
1.74892e-05
-2.83585e-05
1.45855e-05
1.3773e-05
8.6169e-06
-7.39091e-06
-1.22599e-06
-1.88703e-05
-1.51369e-05
-2.02849e-05
-8.07351e-06
2.134e-05
4.02604e-06
5.88457e-06
-1.78444e-06
-4.10013e-06
7.90294e-06
-2.01838e-06
-1.65831e-06
8.99367e-07
7.58945e-07
1.56568e-06
-3.224e-06
3.75679e-06
-3.45734e-07
-3.41106e-06
-1.57551e-05
4.75793e-06
1.09972e-05
9.04184e-06
-2.48702e-05
1.58283e-05
-4.06933e-06
1.02337e-06
3.04596e-06
1.44529e-06
-3.04042e-06
1.59513e-06
-4.49787e-06
-1.17242e-05
1.6222e-05
-2.81272e-05
3.48198e-05
-6.69261e-06
5.44428e-05
-2.76512e-05
-2.67916e-05
-7.48186e-06
1.65237e-05
-3.72448e-05
1.48554e-05
2.23894e-05
-3.55554e-06
-6.58261e-06
6.98716e-07
-7.25012e-06
-1.04701e-05
-2.69546e-06
-7.95234e-06
-6.7642e-06
1.80456e-06
4.95964e-06
-4.84159e-06
6.9573e-06
-4.45715e-05
1.64443e-05
-1.28463e-05
-2.43985e-05
-5.18567e-06
6.46242e-06
-1.27674e-06
3.9938e-06
8.36748e-07
-3.52264e-07
-5.7174e-06
1.27406e-05
-1.30928e-05
9.79596e-06
-4.18926e-06
-5.6067e-06
-2.38185e-06
4.54517e-06
-2.16332e-06
-4.22256e-06
3.66227e-06
5.60289e-07
-4.10466e-06
-8.45154e-06
1.06154e-05
-7.48825e-06
1.57232e-05
-2.07892e-05
-8.26226e-06
1.98033e-05
-1.15411e-05
2.67963e-06
2.66167e-05
3.79258e-06
2.93507e-05
3.93599e-06
-1.24508e-06
-2.69091e-06
1.89535e-07
3.74645e-06
1.27513e-05
-2.10136e-05
9.81214e-08
2.20641e-07
-3.18762e-07
4.42466e-06
3.78314e-06
-8.2078e-06
6.9942e-07
8.64766e-07
-1.56419e-06
-2.78435e-06
1.53926e-06
1.66697e-05
6.94066e-07
-1.73637e-05
7.18118e-06
4.72616e-05
-4.59938e-06
1.81503e-06
-3.23107e-06
3.03336e-06
1.97711e-07
1.66682e-05
-1.2213e-05
4.11982e-06
1.16033e-05
-8.07077e-06
7.55043e-07
7.31573e-06
-6.02624e-06
-2.04453e-06
6.79195e-06
-1.58443e-05
9.05233e-06
-7.99047e-06
1.47824e-05
-1.65729e-05
7.43595e-06
2.0899e-06
-9.52585e-06
-3.72966e-08
-1.2013e-06
1.2386e-06
-4.7012e-06
2.556e-05
-2.08588e-05
7.21e-06
1.08191e-05
-1.80291e-05
-1.03696e-05
1.26629e-05
-1.39631e-05
1.89755e-05
-1.82063e-05
4.16999e-07
1.77893e-05
1.33808e-05
3.28888e-06
5.77215e-06
1.0171e-05
-1.59431e-05
-1.25803e-05
1.83525e-05
6.5274e-06
1.48126e-05
5.25677e-06
-1.51116e-05
9.85487e-06
1.25153e-05
-2.66482e-05
1.41328e-05
4.77929e-06
2.14328e-07
-4.99362e-06
-2.1408e-06
1.52262e-06
6.1818e-07
-5.20959e-06
2.82774e-06
-1.73785e-06
1.53118e-06
2.06674e-07
2.33575e-05
-2.32332e-05
-1.24293e-07
-5.15086e-06
3.70476e-06
-2.87201e-05
-8.13108e-07
2.95332e-05
1.8114e-06
-2.39124e-06
5.79845e-07
1.17592e-05
-1.128e-05
-4.792e-07
1.80747e-05
-3.64108e-06
-1.44337e-05
-4.73552e-05
3.86072e-05
1.00106e-05
1.33469e-05
-3.99955e-06
7.75633e-06
1.62643e-06
6.2765e-06
-1.76709e-05
1.18536e-06
-3.32617e-06
6.99461e-07
-2.24221e-05
-5.89847e-06
-2.4912e-05
-5.76452e-06
-3.04812e-06
1.39922e-05
-1.0944e-05
-1.97054e-07
-2.00144e-07
9.95433e-06
-2.68415e-06
-7.27018e-06
-3.2961e-07
1.0284e-05
-2.72926e-05
2.72926e-05
-3.33307e-05
3.33307e-05
-3.54769e-05
1.13831e-05
2.40938e-05
3.5206e-05
4.07995e-06
-3.92859e-05
3.14068e-06
-8.51836e-08
3.22586e-06
-1.78537e-05
5.38238e-06
1.24714e-05
-2.14432e-06
-2.33662e-06
4.48094e-06
-7.00643e-05
8.56847e-06
6.14959e-05
-1.39593e-05
6.54858e-06
7.41072e-06
-8.52867e-06
-5.43062e-06
3.86515e-06
1.12276e-05
-1.50928e-05
-1.55316e-05
1.55316e-05
2.39872e-05
2.49094e-06
-2.64781e-05
1.46662e-05
-1.57476e-05
1.08142e-06
2.20688e-05
-2.39742e-05
1.90544e-06
-4.30182e-08
-2.52566e-06
2.56868e-06
-6.99555e-07
6.56545e-07
-1.82586e-05
5.22741e-08
-2.68649e-06
3.77301e-06
-3.141e-06
-6.32015e-07
-2.13335e-05
2.07905e-05
2.76486e-06
-3.00574e-05
3.10729e-06
-3.6438e-05
-4.82515e-06
1.21057e-05
-7.28055e-06
-3.12779e-06
-1.39987e-06
9.5723e-07
4.42638e-07
-5.18939e-06
-1.63333e-05
2.15226e-05
-4.82036e-06
-2.01481e-05
2.49685e-05
4.75044e-06
9.91573e-06
7.69178e-06
1.4377e-05
-1.16626e-06
1.26439e-06
7.18089e-07
-2.86244e-06
2.70338e-06
-1.54687e-06
-1.15651e-06
-6.99483e-07
-3.96216e-07
1.0957e-06
4.10237e-05
-3.93701e-06
-1.24867e-06
-1.78582e-06
-6.2334e-06
7.25678e-06
1.94286e-06
4.54737e-07
-2.39759e-06
-5.04537e-06
-1.08033e-07
5.1534e-06
2.84995e-05
6.70643e-06
6.25159e-06
4.61356e-06
-6.57466e-06
6.18821e-06
-4.73608e-06
2.28916e-06
2.44692e-06
6.58467e-06
-2.04517e-06
-4.5395e-06
9.74835e-06
-3.1637e-06
-3.86789e-06
-1.1775e-06
-1.27144e-06
-8.98374e-06
-5.31008e-07
3.20056e-06
-1.04442e-05
1.10362e-05
1.10748e-05
-1.34971e-05
2.42235e-06
5.53253e-07
1.74896e-06
-2.30221e-06
-4.11162e-06
4.66489e-06
5.90588e-06
2.52922e-06
2.12586e-07
-4.72521e-06
1.18824e-06
3.53697e-06
-5.52063e-08
2.75863e-06
-3.1381e-07
-1.08607e-06
-3.1397e-05
-2.1863e-06
7.44306e-06
-5.45904e-06
1.79744e-05
-6.57642e-07
-1.08022e-06
-2.68702e-05
3.30343e-06
2.35668e-05
3.8742e-06
-8.40836e-07
4.43441e-07
-5.16866e-06
2.72147e-06
-1.32321e-06
-1.39826e-06
9.27882e-07
-3.27956e-06
2.35168e-06
2.54311e-06
-6.84793e-07
-2.50272e-06
9.0513e-06
-2.01583e-06
-4.86884e-07
1.47411e-05
-2.12933e-05
6.55215e-06
-3.85384e-06
1.8595e-05
-2.82948e-05
1.94922e-05
8.80262e-06
4.29594e-05
-4.29594e-05
3.81827e-05
-3.81827e-05
1.00127e-05
-9.08489e-06
-1.27293e-05
4.17233e-06
-1.69017e-05
-6.19728e-06
4.42468e-06
1.53467e-05
7.10963e-06
-4.13377e-06
1.76714e-06
-1.14634e-05
2.55767e-05
-2.04659e-05
9.00244e-06
5.88274e-07
-5.28914e-06
4.70087e-06
-1.48017e-06
-3.543e-07
1.83448e-06
1.0019e-05
2.63829e-08
-8.85487e-06
5.07681e-06
3.77806e-06
2.45462e-05
2.35695e-06
-2.69031e-05
1.5817e-05
5.53837e-06
-2.13554e-05
-7.28345e-06
6.9199e-06
-1.74292e-07
-7.10916e-06
-2.25893e-05
-1.06661e-05
3.32554e-05
4.09653e-06
7.34242e-06
-1.14389e-05
3.04896e-05
-2.03718e-05
-1.01178e-05
-4.9536e-06
-1.65451e-06
6.60811e-06
-2.73172e-05
-9.77573e-07
2.03831e-06
6.83166e-07
-2.94212e-06
-1.2804e-06
2.59119e-06
-7.01995e-07
1.34405e-06
-1.38964e-06
-7.32929e-06
-1.52557e-06
2.35815e-07
2.11065e-06
-2.34646e-06
-3.65375e-06
3.88956e-06
1.36036e-06
-1.8262e-05
-7.8854e-06
7.80024e-06
1.10128e-05
5.56087e-06
-1.65737e-05
-2.76511e-05
-3.24538e-06
-5.0308e-07
3.74846e-06
-2.43049e-05
-2.56523e-06
-1.33069e-06
-2.11115e-05
2.24422e-05
-1.06143e-06
-1.17075e-06
4.7685e-06
-7.81661e-06
-7.62952e-06
1.27064e-05
-1.01084e-05
8.28501e-07
9.27988e-06
6.05938e-06
-7.94945e-07
-5.26443e-06
-6.45773e-06
1.03229e-05
1.00697e-05
9.43129e-07
-5.27423e-06
-6.25708e-06
1.15313e-05
4.4545e-06
4.14791e-06
-8.60241e-06
4.12486e-06
-4.72616e-05
-2.28028e-05
3.08827e-06
1.11369e-06
-2.06574e-06
9.52052e-07
4.9033e-06
1.74329e-05
1.39922e-05
-1.08066e-05
8.21736e-06
2.58927e-06
-1.6374e-06
-9.16924e-06
1.02283e-06
1.00519e-05
1.42771e-06
-4.61739e-06
3.18968e-06
-2.12534e-05
-4.44988e-06
1.04098e-06
-1.94005e-06
8.99062e-07
2.40438e-05
-2.07404e-05
-2.81877e-07
-2.10739e-06
-2.8623e-07
2.31008e-07
2.29778e-06
-1.18408e-06
-1.50434e-05
7.71414e-06
8.7152e-06
2.29866e-06
-1.10139e-05
3.88426e-05
-1.75349e-06
-2.98258e-06
-8.91485e-07
-2.94115e-06
3.83263e-06
-4.07605e-06
-7.8846e-06
2.06628e-05
-1.27782e-05
-8.55978e-06
2.41714e-05
-1.56117e-05
2.97738e-06
-1.50746e-06
-1.46992e-06
-7.3573e-07
-1.79073e-05
1.8643e-05
1.44243e-05
-1.516e-05
3.30211e-05
-7.46105e-06
2.43756e-05
-1.35565e-05
5.48987e-07
3.70858e-06
-2.15623e-05
3.80593e-06
-1.84287e-05
1.32393e-05
-2.03415e-05
1.55211e-05
1.20446e-05
-2.85408e-07
-3.26674e-06
-9.71072e-06
6.06967e-06
2.79387e-06
7.49009e-06
4.55165e-07
2.33869e-06
-5.52794e-06
5.21414e-06
6.5159e-06
-1.4443e-06
-5.1733e-06
1.22524e-05
-7.0791e-06
-6.07901e-06
-1.23497e-06
1.46227e-06
-2.27306e-07
2.22392e-06
-3.45891e-06
-1.18773e-05
-1.35768e-05
2.54542e-05
-3.97422e-06
5.40192e-06
1.51216e-05
-1.15974e-05
-3.52416e-06
-1.39593e-06
-1.64449e-06
1.91713e-05
6.64396e-06
-1.178e-05
5.13602e-06
5.76805e-06
8.759e-07
-1.65013e-06
-3.92204e-07
2.04233e-06
-3.27176e-06
1.62158e-06
-9.66608e-06
-5.4396e-06
-7.22391e-06
-5.54648e-06
1.27704e-05
7.2004e-06
-1.98075e-06
-8.49928e-08
-7.45613e-06
-1.16208e-06
-8.12575e-06
4.88038e-06
-1.63811e-06
-1.70077e-07
1.80818e-06
1.94262e-06
-1.19713e-06
-7.45495e-07
2.88085e-06
-6.92008e-06
4.03923e-06
-5.81429e-06
-1.00417e-05
4.22742e-06
-2.7107e-06
-4.30325e-07
-8.15995e-06
1.6476e-05
-8.31602e-06
-4.31263e-07
5.11962e-06
-4.68836e-06
6.02625e-06
-6.88019e-06
8.53942e-07
9.01175e-06
1.70889e-05
-2.61007e-05
7.99253e-06
6.29914e-06
-1.42917e-05
1.01312e-05
-6.38411e-06
6.33507e-06
-6.5744e-06
-2.91056e-05
6.51631e-06
-4.65374e-07
1.89001e-05
-2.95662e-05
-2.0759e-06
-2.05786e-06
2.55412e-06
1.27926e-05
-3.37756e-07
-8.79333e-06
-1.97351e-05
2.2752e-07
4.2803e-06
1.77906e-06
4.10047e-06
-1.19978e-05
7.89734e-06
4.52077e-06
2.91517e-06
2.38193e-06
-5.07285e-06
-2.99735e-06
5.37927e-06
1.54295e-06
-6.71627e-06
7.40253e-06
-5.85956e-06
7.586e-06
-9.74931e-06
-9.36478e-07
3.20005e-06
3.19383e-06
1.4409e-06
-4.63473e-06
1.39158e-05
-1.08146e-06
6.43891e-06
-5.35745e-06
-4.70134e-07
4.32802e-07
3.40259e-06
1.26355e-08
-3.41523e-06
-3.06357e-06
1.8622e-06
-3.88614e-06
7.07998e-06
4.55937e-06
-4.91185e-06
3.52482e-07
-6.73806e-06
-6.87464e-06
4.48342e-06
-6.09015e-06
5.0087e-06
1.02255e-07
3.58332e-07
-4.60586e-07
-1.39316e-05
1.27695e-05
-2.40981e-05
1.6642e-05
-5.07288e-06
-4.63788e-06
-4.55488e-06
1.31262e-05
-8.57128e-06
7.2994e-06
-1.18543e-05
4.33705e-06
4.37816e-06
5.88353e-06
-9.48756e-06
3.60403e-06
-1.29894e-05
2.19242e-05
-8.85388e-06
-4.64323e-06
2.16157e-05
-2.99482e-05
8.33257e-06
7.50158e-07
2.65245e-06
-7.90833e-06
8.49658e-06
-4.33739e-06
7.81841e-07
-2.71533e-06
2.55404e-06
1.61297e-07
1.58818e-06
6.78715e-06
-8.37532e-06
7.57613e-06
-1.14344e-06
-6.43269e-06
3.63909e-06
-1.55152e-06
-3.38282e-06
-1.24615e-05
1.55785e-05
6.50817e-07
-8.81078e-06
-2.31193e-06
1.88066e-06
2.40345e-06
-1.20695e-05
-5.99275e-05
-1.17122e-05
1.50391e-05
-3.32694e-06
-6.56184e-06
3.77755e-06
2.78429e-06
1.27389e-06
1.97068e-07
-1.47096e-06
-4.24624e-07
-1.4231e-06
1.84772e-06
1.18002e-05
-2.697e-06
-9.10318e-06
5.92697e-06
-8.99518e-07
-5.80697e-07
5.87462e-06
1.31008e-05
-6.79419e-07
-3.82012e-07
-1.85131e-06
6.80556e-07
-4.82968e-06
-6.98268e-07
-3.99297e-06
4.40996e-06
2.69583e-06
5.92106e-06
-6.95877e-06
-4.75341e-06
5.74051e-06
6.05967e-06
1.73868e-05
2.24641e-06
-1.57315e-05
5.58042e-06
1.01511e-05
-7.48588e-06
3.53905e-06
3.94683e-06
2.69343e-06
5.11145e-07
1.68757e-05
-9.81996e-06
-2.87838e-06
1.09257e-06
-4.41642e-05
4.41642e-05
-4.16927e-05
4.16927e-05
-1.04328e-05
-1.29145e-06
2.96843e-05
-3.65136e-05
6.82928e-06
2.58873e-05
4.36284e-06
-3.02501e-05
-3.11173e-06
8.99526e-06
1.39599e-05
-8.47576e-06
-5.48418e-06
-1.51747e-05
-3.77532e-06
-5.08329e-06
-7.52214e-06
-1.06667e-06
-6.71994e-06
5.06543e-06
-3.87861e-06
9.28029e-06
-3.72578e-06
-8.81324e-06
5.17583e-06
3.63741e-06
2.48745e-05
-4.1443e-06
1.625e-05
-6.85254e-06
4.87848e-06
-4.75521e-06
-3.26969e-06
1.51523e-07
3.11817e-06
3.99577e-05
-3.99577e-05
2.53548e-06
2.45548e-06
-4.99095e-06
-4.05626e-06
7.71854e-06
-2.06807e-05
1.27961e-05
-2.42097e-05
1.56499e-05
-3.52682e-06
5.33492e-06
-1.8081e-06
8.55951e-07
-4.38277e-06
-7.19342e-06
9.28334e-06
-3.78541e-06
2.89394e-06
6.90672e-06
-4.02587e-06
1.75002e-05
1.76308e-06
-2.45752e-06
-1.88227e-06
2.07998e-06
-9.9567e-06
5.38854e-07
-3.24956e-06
8.589e-06
-3.46937e-06
1.77433e-05
-1.26737e-06
-2.74725e-06
8.64948e-07
8.51076e-07
-7.43035e-06
6.57927e-06
1.51227e-06
1.39617e-05
2.5996e-05
-2.06327e-06
8.66118e-07
-6.27501e-07
-2.01129e-06
-2.143e-06
5.04913e-07
-5.32185e-06
1.9536e-06
3.36825e-06
-1.11908e-06
5.79476e-07
-1.15213e-06
-3.28804e-06
4.87621e-06
-1.07383e-06
1.54611e-06
-1.71615e-06
-5.14033e-06
-1.41295e-05
3.62104e-05
-2.2081e-05
-1.12723e-05
1.38265e-05
-1.68063e-05
5.53393e-06
-7.02375e-06
4.61909e-07
-7.82173e-06
8.84457e-06
-1.08483e-05
3.02654e-06
1.1205e-05
-1.02101e-05
-9.94861e-07
-6.02623e-06
5.8274e-07
1.15809e-07
1.2041e-06
-1.31991e-06
-1.8095e-07
-1.14228e-06
-1.44967e-05
2.35084e-05
6.5852e-06
-4.31251e-07
-6.15395e-06
-6.87406e-06
1.34593e-05
1.564e-05
-2.39066e-05
8.26665e-06
4.83926e-06
6.36574e-06
2.81883e-06
-5.94879e-07
-1.05979e-06
1.70509e-05
2.59085e-05
1.57156e-05
2.24671e-05
1.51215e-05
-7.68224e-06
2.13576e-06
5.47309e-06
7.18838e-06
-1.26615e-05
-2.94357e-07
3.94364e-07
-1.00007e-07
5.6162e-07
2.28892e-06
4.59823e-06
-6.88715e-06
1.22345e-05
-1.00693e-06
1.12309e-05
7.73818e-06
-8.68989e-06
9.51701e-07
-2.2542e-05
2.53069e-05
-2.76309e-05
3.07382e-05
2.2813e-05
-2.2813e-05
8.16897e-07
-3.2145e-06
1.5082e-05
-5.98158e-06
4.62199e-06
1.35959e-06
9.89009e-06
2.22058e-06
-1.21107e-05
-4.33548e-06
-1.64609e-06
-3.20434e-06
1.12844e-06
-1.59571e-05
2.0435e-05
-4.47794e-06
9.61961e-06
2.30862e-05
-2.05952e-05
2.01419e-05
2.80891e-06
-1.46486e-06
3.23503e-06
-1.72275e-06
-7.99306e-06
3.71507e-06
4.27799e-06
-4.52664e-06
-7.47586e-07
1.67412e-06
3.74565e-06
-5.41977e-06
1.10698e-05
-9.39567e-06
-2.12334e-06
4.76925e-06
-6.40664e-06
-8.65081e-06
1.25991e-06
6.56882e-07
-6.56882e-07
2.7441e-06
2.56171e-07
-9.66967e-06
1.29513e-05
-3.28165e-06
-8.72825e-06
1.59888e-05
-7.26059e-06
-5.34144e-07
-1.13633e-05
1.10856e-05
-1.8023e-05
6.93742e-06
-1.53926e-05
-6.88095e-06
1.17666e-05
-1.30782e-05
4.72826e-06
2.01463e-05
2.60299e-06
-2.86509e-05
1.54413e-05
-2.16747e-05
-2.56417e-06
5.26551e-06
-2.70135e-06
3.40079e-06
-1.42749e-05
-2.53136e-06
5.8804e-06
-1.41933e-05
-1.53818e-06
8.00457e-06
-2.15814e-05
8.33867e-06
1.54002e-05
-2.40883e-05
8.68803e-06
1.092e-05
-1.99083e-05
8.98833e-06
-2.15564e-05
1.32404e-05
-1.00013e-05
5.31291e-06
-1.22927e-05
-3.23891e-06
4.46505e-06
-1.70454e-05
-1.44556e-06
7.66143e-07
6.84122e-07
-2.27479e-06
2.39058e-06
6.21509e-06
-2.64141e-07
4.04728e-06
-4.56843e-06
-2.18575e-05
2.64259e-05
-3.88e-05
1.20903e-05
2.67097e-05
-1.47562e-05
3.50864e-06
1.93043e-05
3.94873e-06
7.12107e-06
-6.90661e-07
-3.30231e-06
-8.89165e-07
3.02205e-06
-2.13288e-06
1.99731e-05
-1.43926e-05
2.08724e-05
-2.16855e-05
1.7661e-05
-2.02107e-06
2.496e-05
-4.60241e-06
-2.03575e-05
1.70446e-05
-2.763e-06
-1.42816e-05
3.52898e-06
3.77041e-06
5.01043e-07
-3.21639e-06
-8.76969e-06
1.96897e-05
-9.00963e-06
2.44099e-05
6.27316e-06
-2.39441e-05
-3.02189e-06
1.42419e-06
1.5977e-06
-7.60867e-06
1.98506e-05
-4.1436e-06
-2.2976e-06
-6.96695e-06
3.90339e-06
2.18595e-05
-2.18595e-05
-4.30992e-07
1.44769e-07
8.86106e-07
1.41168e-06
2.23921e-05
1.24277e-05
1.61805e-05
1.38479e-07
2.55903e-07
-5.38799e-06
6.2049e-06
-2.24557e-06
1.55113e-06
4.20353e-06
5.22765e-06
-8.13568e-06
2.90803e-06
2.79108e-06
-3.14539e-06
3.98908e-06
-3.76843e-06
-9.1703e-06
-1.92228e-06
1.10926e-05
-2.75942e-06
-6.41091e-06
3.36622e-06
1.28612e-05
7.59021e-06
8.63182e-06
-5.30576e-06
5.58982e-06
1.7092e-07
-5.76074e-06
-3.13549e-06
-5.55436e-06
1.18075e-05
-3.59009e-06
2.83083e-05
-1.97398e-05
2.82947e-05
-2.40739e-06
5.73109e-06
2.14811e-06
-7.8792e-06
1.65218e-07
9.59721e-06
-2.21066e-05
3.34897e-05
2.70029e-07
-7.75589e-06
-1.88926e-05
1.81563e-05
7.36305e-07
-1.15962e-05
-7.29643e-06
-1.01475e-05
9.35256e-06
2.06232e-05
-5.18189e-06
1.73162e-05
-4.54581e-06
1.83869e-05
-1.0707e-06
2.984e-05
-3.24812e-05
2.06364e-05
-1.26319e-05
2.09762e-05
9.59557e-06
-1.11745e-06
-1.90439e-06
1.20423e-05
3.48937e-06
-7.85601e-06
-3.42402e-06
6.51263e-07
-1.73733e-06
-2.12074e-06
2.77204e-06
-1.5309e-06
-6.04157e-06
7.57247e-06
-1.55003e-06
-1.71968e-06
-4.32054e-05
-1.67221e-05
-3.38627e-06
2.49711e-06
-4.85626e-06
-4.65581e-07
2.08494e-07
2.75097e-05
-2.77182e-05
-1.04827e-05
-1.36895e-05
-2.64375e-06
-1.67036e-05
-3.44456e-06
-5.40687e-06
1.09453e-05
-9.67854e-06
1.20355e-05
7.97502e-06
-3.87847e-06
-1.29445e-05
4.49576e-06
8.44871e-06
4.58741e-06
-1.02538e-05
5.66643e-06
-2.54182e-07
-2.36829e-07
8.93747e-07
1.47927e-05
-1.42421e-07
-1.46503e-05
-2.09813e-06
2.976e-07
1.80053e-06
7.09016e-06
-2.32092e-06
-4.73445e-06
6.53298e-06
-1.79853e-06
2.52275e-06
-1.20323e-06
1.40644e-05
-5.62326e-06
8.98948e-06
1.9687e-05
-2.64243e-06
-1.63779e-05
-1.07066e-05
-5.19011e-07
-7.47402e-06
-1.34978e-06
-2.83775e-06
1.41468e-06
1.15273e-05
8.90765e-06
-6.37992e-06
1.35193e-05
-2.3225e-06
-1.11968e-05
2.69295e-06
1.08263e-05
-2.65286e-06
-4.0852e-06
7.63357e-06
-1.50895e-06
-1.14391e-06
2.66671e-06
-5.23088e-06
-4.21349e-06
4.91439e-06
9.87834e-06
-2.76829e-06
6.70152e-07
5.88172e-07
6.76546e-07
-1.26472e-06
2.12365e-07
3.75807e-07
-2.89387e-05
-1.00951e-06
-1.11187e-05
3.48915e-06
2.69106e-05
2.7737e-06
-9.96666e-06
-2.97783e-06
-2.78556e-05
2.80641e-05
-2.4515e-06
-1.06267e-05
7.04463e-07
-2.65826e-05
1.87219e-05
7.8607e-06
-1.9401e-05
2.3866e-05
-2.25941e-06
-2.65245e-06
-6.7141e-07
-8.92773e-07
3.5053e-06
-3.2646e-06
-2.407e-07
-1.85049e-07
-1.08288e-05
-7.1051e-06
4.57406e-06
1.25148e-05
3.25296e-06
1.56168e-05
-1.18387e-05
6.86617e-07
1.07646e-06
2.06174e-05
-2.80689e-06
-1.78105e-05
2.75174e-05
-6.56695e-06
-2.09504e-05
-1.07697e-05
-7.20973e-06
1.79795e-05
9.69741e-06
1.0939e-05
-2.33955e-05
-6.21667e-06
1.17775e-05
2.76511e-05
-3.65974e-05
8.94628e-06
2.58365e-06
8.87056e-06
-1.52812e-06
1.75422e-05
2.2531e-06
-1.97953e-05
2.22859e-05
2.68263e-06
1.82472e-05
3.27545e-06
-3.55265e-06
3.50801e-06
4.46403e-08
-5.00826e-06
-3.11748e-06
1.23915e-06
-1.23915e-06
-4.30591e-06
9.5421e-06
1.26686e-05
1.05955e-05
-8.55724e-06
-1.01673e-05
1.84998e-05
-4.08315e-06
1.83984e-06
2.24331e-06
-1.74308e-06
1.47894e-06
-2.72609e-06
3.89366e-05
-1.87918e-06
-3.4594e-06
-8.62483e-07
-3.52073e-05
-6.55593e-06
5.11776e-06
-8.25326e-06
-1.04263e-05
-1.26744e-05
-1.26702e-06
5.31432e-06
-1.07136e-05
5.25914e-06
-1.94525e-05
3.36496e-05
-2.83905e-05
-2.95916e-06
-3.91668e-05
-3.55031e-05
-8.0089e-06
1.13423e-06
7.2155e-07
3.49402e-06
-6.85125e-07
9.15281e-06
1.4898e-05
5.94936e-06
-8.03634e-06
2.08699e-06
-1.56435e-05
-2.85207e-05
-1.56968e-05
-2.59959e-05
3.76316e-06
1.84071e-05
-2.79037e-06
-2.4168e-06
2.42659e-06
-9.78723e-09
2.76248e-06
-7.24043e-06
2.1175e-06
-1.06462e-05
1.99034e-06
-1.4101e-05
1.98192e-05
1.72715e-05
-2.20768e-06
-7.37991e-07
6.14242e-07
5.41289e-07
-4.62441e-06
-1.90296e-06
1.59878e-07
-1.19536e-06
7.62356e-06
-6.78866e-06
1.26898e-05
-5.90118e-06
1.16276e-05
-1.54955e-05
3.38256e-05
-6.99972e-06
-2.68259e-05
-1.03728e-05
2.6905e-06
7.31574e-06
2.18955e-05
-7.00791e-07
4.81971e-06
-1.30275e-05
5.66007e-07
5.29687e-07
3.41456e-05
-4.95975e-07
2.84737e-06
1.15308e-06
-9.62884e-06
-9.61666e-06
4.61633e-07
-1.19435e-05
1.14819e-05
1.07408e-06
1.05535e-05
-8.12297e-06
-1.51103e-05
9.72429e-07
-3.22584e-06
-1.19342e-05
-6.77235e-06
-8.33924e-06
-1.42636e-05
-1.23846e-05
8.63282e-06
5.89417e-06
2.73866e-06
8.02248e-06
-5.32404e-07
1.32175e-06
-5.46536e-06
2.85447e-05
-1.4583e-05
1.51845e-05
-1.97529e-05
-2.68463e-06
-1.00608e-06
3.69071e-06
5.16273e-07
-2.28995e-05
1.87061e-05
2.78522e-06
3.89855e-06
-7.3679e-06
1.24147e-05
-1.3682e-05
2.46671e-05
-2.33068e-05
1.00681e-05
-5.89117e-06
7.87195e-06
-1.98079e-06
2.1666e-06
-8.05778e-06
3.05089e-06
-5.61957e-06
6.11274e-07
-1.35469e-06
1.2547e-06
8.09391e-07
2.66469e-06
2.22952e-05
-4.90636e-07
6.29127e-07
1.46626e-05
4.14367e-06
-1.88062e-05
-8.97783e-06
-2.47128e-07
9.22496e-06
4.20639e-06
8.58333e-06
-4.37694e-06
1.09967e-06
-4.16514e-07
9.38937e-06
1.20616e-06
2.07688e-07
-2.01578e-06
6.95171e-07
1.74611e-05
1.35241e-05
-1.28289e-05
5.97594e-06
-5.85885e-07
-4.87941e-07
-9.77305e-06
-2.17049e-06
-4.89219e-06
-2.4687e-06
3.19703e-06
1.71232e-07
1.46196e-06
3.80353e-06
-2.68458e-05
-9.66777e-06
2.01851e-06
-6.21756e-06
3.53342e-06
-6.62711e-06
-1.14619e-05
1.8089e-05
-2.53183e-05
1.86912e-05
5.99699e-06
-2.74404e-06
3.23042e-06
3.59315e-06
-8.07926e-07
1.61244e-06
-3.5788e-06
7.70366e-06
2.6252e-05
7.57362e-06
-1.72795e-05
-3.18638e-06
-8.08578e-06
-1.63146e-05
1.93025e-06
1.13101e-05
5.67378e-07
4.74556e-06
-5.72584e-07
1.05832e-05
5.31782e-06
9.62203e-06
-2.79056e-05
1.06442e-05
1.72614e-05
-3.28269e-05
1.20388e-05
2.0788e-05
1.96429e-06
3.67183e-06
-5.63611e-06
3.48712e-06
-1.05922e-05
1.99377e-06
-9.52797e-07
8.22506e-06
7.57909e-06
6.07282e-06
2.51052e-06
-4.48067e-06
5.68428e-06
-1.20361e-06
5.05898e-06
-1.13247e-05
-7.44486e-06
1.87696e-05
-1.24765e-05
-1.52952e-05
-5.26535e-06
-6.33204e-06
-1.22058e-05
4.12002e-06
7.37814e-06
-1.52635e-05
2.40692e-06
-1.45323e-08
1.10709e-06
-1.33726e-07
4.28165e-06
1.14353e-07
1.72547e-06
-2.75672e-05
-8.23277e-07
2.01508e-06
1.974e-06
-1.82784e-07
3.60768e-06
-1.56996e-05
8.55763e-06
-1.29875e-05
6.29202e-06
6.31028e-06
7.54444e-06
-7.39357e-07
1.54019e-05
-1.37118e-05
3.07627e-05
-1.11006e-05
2.68163e-05
5.27013e-06
7.26859e-07
-3.96536e-06
5.40626e-06
3.73608e-06
-9.29045e-06
-2.21641e-06
-5.06417e-06
-2.49096e-06
-5.04596e-06
7.53692e-06
-9.57004e-06
-6.26808e-06
-5.32808e-06
-1.08164e-05
7.33375e-06
-7.33375e-06
5.12814e-06
-1.04187e-08
-5.28054e-08
5.18093e-06
-6.7031e-06
1.01902e-05
-1.67993e-06
-3.8336e-07
1.57537e-06
-3.2553e-06
-1.22008e-05
1.22008e-05
5.8217e-06
5.44028e-07
-5.26537e-06
-1.36785e-05
-1.95918e-05
8.1313e-06
-1.34418e-06
-1.28782e-05
1.76311e-05
1.4305e-05
-2.04894e-06
5.7946e-06
-1.7491e-05
-6.59724e-06
-1.65744e-05
-3.33396e-06
-6.25709e-06
8.91836e-06
1.35796e-06
-8.1397e-07
-5.43989e-07
1.29478e-05
-3.04388e-05
1.02067e-05
-2.67811e-05
2.93215e-06
-1.191e-05
1.15313e-05
-8.98324e-07
2.80938e-06
2.77298e-05
1.64344e-05
2.59332e-05
1.57595e-05
8.02045e-07
3.26404e-07
-2.69396e-05
-6.2762e-07
4.95463e-07
1.15512e-05
-3.67921e-05
1.21708e-05
2.46213e-05
-3.15844e-05
1.00365e-05
2.15479e-05
-2.13778e-05
-2.38443e-05
-1.87341e-06
9.39583e-06
-7.52241e-06
1.23972e-05
-5.89736e-07
5.5562e-06
2.31574e-06
1.39284e-05
-2.95719e-05
1.28479e-05
1.24189e-05
-1.84914e-06
-6.97972e-06
3.16103e-06
-5.10105e-06
8.17867e-06
1.22368e-05
-7.17781e-06
-4.66292e-06
6.97583e-07
-1.04417e-05
1.15158e-05
-1.63366e-06
6.44138e-05
8.26747e-07
2.68127e-06
6.99346e-06
4.69584e-06
-8.50072e-06
-1.61094e-05
4.11966e-06
-1.52795e-06
1.7423e-06
-3.74191e-06
1.64857e-05
3.36489e-06
3.07012e-06
1.87894e-05
-1.64812e-06
3.05276e-06
1.03326e-05
-8.77278e-06
-1.55984e-06
-9.28445e-06
-1.72981e-05
-8.25324e-06
-6.79017e-06
-2.25947e-06
1.38761e-08
2.37321e-08
8.54571e-07
-8.78303e-07
8.10407e-06
-2.45146e-06
-1.72931e-05
-1.93043e-05
1.42237e-05
-4.94038e-06
-3.57491e-06
7.4423e-07
-2.29406e-06
-5.93097e-06
8.22503e-06
-1.6333e-05
5.00836e-06
-6.1286e-07
2.69776e-08
1.87219e-05
5.8425e-06
-4.42033e-06
5.91931e-06
-1.49898e-06
3.80832e-06
1.83154e-05
-4.27222e-06
-1.40432e-05
7.87366e-06
-1.20653e-05
-1.48743e-05
-5.7423e-06
1.14292e-06
7.00281e-06
-3.59911e-06
-2.33056e-06
1.65469e-05
-1.28646e-05
6.58026e-06
7.85791e-06
-2.03618e-06
4.09064e-06
-7.31646e-06
2.56161e-06
-4.52911e-06
9.80195e-06
5.23718e-06
-9.78361e-06
1.23524e-05
-2.35307e-07
1.04544e-05
-2.78367e-06
-6.74989e-07
2.69008e-06
2.86408e-06
-6.98268e-06
1.96456e-05
4.17566e-06
9.1438e-07
-5.09004e-06
-3.28269e-05
-2.79056e-05
-3.56946e-05
2.00399e-06
1.00086e-05
-1.06813e-06
8.19032e-06
5.09366e-06
-2.46582e-06
3.17028e-06
1.89188e-05
-1.12047e-05
7.80016e-06
4.63313e-06
-4.6094e-06
8.75416e-06
4.28078e-06
-3.96476e-06
2.43682e-06
5.06817e-06
-3.11082e-06
-1.5239e-06
-5.63468e-06
2.52387e-06
5.79022e-06
-1.7788e-05
-2.38067e-06
-2.61292e-06
8.27024e-06
-1.19598e-05
-5.25907e-07
-6.90445e-06
-3.66231e-06
-1.81952e-05
-8.24839e-06
2.89096e-06
-1.22927e-05
-3.41541e-06
1.12135e-06
-2.12255e-06
-1.0651e-05
-1.75255e-05
1.39354e-05
-3.04996e-05
1.01581e-05
-2.73202e-05
8.89155e-06
5.60254e-07
-6.19492e-06
-4.38075e-06
1.33871e-06
5.19427e-06
-5.18519e-06
4.36092e-07
4.7491e-06
-1.15914e-06
-8.93738e-07
1.05007e-05
-9.78344e-06
-4.60984e-06
7.57391e-06
-1.21838e-05
-7.17124e-06
2.92325e-05
9.06028e-08
1.77867e-05
-9.20533e-06
-8.58139e-06
-9.2537e-07
-6.31243e-06
7.49287e-06
-1.18044e-06
-6.83143e-06
2.27205e-05
1.63405e-05
2.43263e-05
5.02439e-06
2.11522e-05
5.4645e-06
-3.68833e-06
1.35167e-06
1.06145e-05
1.00516e-05
1.30849e-05
1.13883e-06
4.48325e-07
-6.05697e-06
4.18354e-06
1.92038e-06
-1.72681e-06
4.60778e-06
6.90801e-06
1.32259e-05
-8.13229e-06
4.79319e-06
-7.5568e-06
1.45234e-06
4.27158e-06
-1.34458e-05
-3.55031e-05
-3.91668e-05
2.14219e-06
3.39968e-06
9.27987e-06
1.20423e-05
6.95829e-06
1.12434e-05
1.17551e-06
-3.84936e-06
-8.96301e-06
8.26222e-06
1.22499e-05
-6.51325e-06
-5.73664e-06
8.32496e-06
-6.75639e-06
-1.56856e-06
-3.49841e-06
6.7784e-07
-1.04742e-05
8.94333e-06
6.36408e-06
3.40323e-06
3.74316e-07
8.16537e-06
-5.76193e-06
1.04398e-05
-3.48153e-06
3.07753e-06
-8.92778e-07
2.71668e-06
5.47364e-06
-8.60658e-06
-6.39862e-06
-1.77868e-05
-4.07276e-06
2.19157e-06
-1.044e-05
6.26383e-06
1.21433e-05
-2.52307e-05
7.86694e-06
3.88545e-07
1.32764e-05
-1.57279e-05
-3.6438e-05
-3.00575e-05
6.90526e-07
9.59291e-06
-3.82484e-06
-7.7735e-07
7.41946e-07
3.54036e-08
2.36961e-06
-4.98564e-06
3.7496e-07
-1.80981e-06
2.23236e-06
4.85782e-06
6.28799e-07
8.59674e-06
-9.22554e-06
-1.41672e-07
-2.32415e-06
-3.01283e-06
-2.87227e-06
2.68572e-06
4.32439e-07
3.33396e-06
-2.52227e-06
-8.11695e-07
-4.52609e-06
2.61822e-05
-3.60022e-05
-4.15586e-05
4.15586e-05
1.02177e-06
5.97358e-06
-2.61416e-05
2.23322e-05
2.60172e-05
4.98928e-06
5.04329e-06
-7.57425e-06
-1.70847e-06
9.28272e-06
-3.90973e-06
-2.02124e-06
6.01289e-06
-1.41466e-06
-4.60037e-06
3.04705e-06
-3.04705e-06
-1.49335e-06
5.94675e-06
-6.42896e-06
-1.0932e-06
-8.14329e-06
4.36796e-06
-2.15914e-05
-1.23055e-05
-1.05436e-05
2.80437e-05
-6.09493e-06
8.06967e-06
1.06477e-07
-5.44022e-06
5.5467e-06
2.59377e-05
-2.82098e-05
2.27212e-06
-2.22016e-06
3.68243e-06
2.4779e-05
1.1587e-06
1.46358e-06
4.09263e-06
-4.18921e-07
-9.5932e-07
2.5671e-06
8.00689e-08
1.39121e-05
7.70705e-06
6.77219e-07
1.24872e-05
6.70831e-06
1.26671e-06
8.69865e-06
-1.90854e-06
-5.34187e-06
9.74709e-06
-2.05556e-05
1.08086e-05
-1.91098e-05
-8.2104e-06
-2.14281e-05
-9.07152e-06
-6.26192e-06
-7.4997e-06
-4.54225e-06
-3.13997e-07
2.16067e-05
4.28071e-05
1.54713e-05
1.86839e-06
-5.75452e-06
-3.67741e-06
5.5458e-06
-1.65761e-05
-1.34467e-05
8.90092e-06
-1.33667e-05
-8.86679e-06
1.1265e-05
6.0065e-06
1.47999e-05
5.01929e-06
-2.64641e-06
3.5608e-06
2.77298e-05
2.59332e-05
-1.36094e-05
-3.96324e-06
-6.80802e-06
5.16649e-06
-5.30816e-06
7.90746e-08
-1.12436e-05
8.63271e-07
-7.14242e-06
3.86285e-06
3.3707e-06
1.29415e-06
3.15856e-06
7.45338e-07
-1.82191e-06
4.77722e-07
-1.28367e-05
1.48142e-06
1.13553e-05
-3.40848e-06
4.1573e-06
-7.48824e-07
-2.41723e-06
2.55925e-07
-2.62236e-06
-2.37192e-06
-3.12026e-06
4.21349e-06
1.74749e-07
-5.04019e-06
-3.79592e-07
3.19278e-05
2.33088e-05
-1.50422e-05
-6.68213e-06
-1.39131e-05
5.95151e-06
5.644e-07
-4.15363e-06
-8.37334e-07
-6.32731e-06
2.30765e-06
-1.00635e-05
-1.34203e-06
1.49597e-06
-5.49507e-06
-5.46455e-07
8.0403e-06
-1.75162e-05
2.55565e-05
2.07998e-06
-1.88272e-06
-4.65239e-06
-8.98524e-06
-7.7183e-06
-7.96988e-06
-5.7196e-06
2.65044e-06
1.87034e-06
1.15524e-05
-1.49678e-05
-1.03452e-05
2.5536e-05
-1.51908e-05
-4.77392e-06
-8.90462e-06
4.37912e-06
-2.39709e-05
1.8512e-05
5.08096e-06
3.37732e-06
-3.2496e-06
-1.27716e-07
4.10992e-05
3.40502e-05
-2.72209e-05
1.6534e-05
-1.39121e-05
-7.30337e-06
-1.55351e-05
5.52026e-06
1.98243e-05
1.67295e-05
7.13637e-06
1.16332e-05
-1.30275e-05
-1.30579e-05
-2.6228e-05
1.14952e-05
4.81303e-06
5.77179e-06
-1.0812e-05
2.45179e-06
-1.44223e-07
-2.30756e-06
-1.96986e-06
9.17462e-06
-3.29422e-06
-2.20188e-06
1.13765e-05
1.11072e-06
-1.31204e-05
6.60718e-06
-1.02446e-05
3.48825e-06
-3.46486e-06
1.83789e-06
-4.82048e-06
3.49067e-06
3.11744e-06
-8.58139e-06