/*--------------------------------*- C++ -*----------------------------------*\
  =========                 |
  \\      /  F ield         | OpenFOAM: The Open Source CFD Toolbox
   \\    /   O peration     | Website:  https://openfoam.org
    \\  /    A nd           | Version:  7
     \\/     M anipulation  |
\*---------------------------------------------------------------------------*/
FoamFile
{
    version     2.0;
    format      ascii;
    class       volScalarField;
    location    "0.1";
    object      p;
}
// * * * * * * * * * * * * * * * * * * * * * * * * * * * * * * * * * * * * * //

dimensions      [0 2 -2 0 0 0 0];

internalField   nonuniform List<scalar> 
2016
(
23.0875
22.5398
6.96601
6.83607
18.1928
15.5962
1.87203
5.61889
19.9387
17.187
17.0079
0.894551
0.702263
18.129
18.7083
1.26938
0.74843
18.4415
-0.422295
-2.37824
19.9545
-1.08684
-0.265609
13.536
14.3712
14.2954
7.33189
6.21445
18.6396
16.9967
19.7421
3.42012
6.11312
12.9535
13.3351
-1.14639
-1.66585
16.2257
14.1087
4.7037
-0.204869
-1.63519
17.7473
18.276
22.3039
13.7698
8.62691
2.65183
1.88022
15.7151
4.76571
5.30771
1.27048
0.618584
13.7224
11.5704
1.18054
7.42714
0.317076
-0.0083218
13.6659
14.4153
5.94491
4.29129
20.9547
14.6426
5.77545
17.5325
20.8703
1.56123
-0.590546
17.7053
1.64637
-0.489189
12.7387
21.2806
21.096
22.1291
22.4857
16.2242
9.32263
8.61864
2.77313
23.4731
12.399
7.37122
4.04009
5.86997
8.75207
19.0156
22.4323
0.202958
-1.60172
23.4219
20.4697
7.85249
9.64139
12.8612
13.105
0.285962
-0.255754
9.69658
22.4348
19.0158
-0.800795
-1.09748
17.6678
13.3323
7.70413
-1.68355
0.394692
22.0166
22.031
7.93405
21.9419
19.1944
21.2258
22.0751
1.27699
5.48675
22.3245
22.3901
18.9089
11.7548
15.5425
14.2193
21.8324
19.6086
9.46394
13.4281
20.9007
1.7526
2.75648
0.975585
14.7954
4.01678
1.267
10.3927
8.77682
12.389
0.19828
-0.368218
17.9927
23.3666
21.7305
22.0505
5.14152
3.43817
4.03783
14.3404
14.8515
13.6045
6.84588
4.83498
17.2119
21.0718
18.0873
7.97553
23.0524
21.2465
-2.14007
-0.10266
13.6964
19.5485
20.6195
21.3066
0.661183
1.18858
2.79014
4.14081
3.04328
2.74548
8.7138
18.8056
6.37213
2.1076
2.3331
6.38498
16.8601
12.9602
-0.560552
1.53652
22.099
22.4523
4.52024
12.5757
22.876
3.99616
0.422564
0.839247
11.2832
11.2919
20.9022
-2.59875
-0.451908
-0.726225
1.28764
22.3894
18.2935
21.9983
21.3348
8.2033
12.6052
23.2486
2.76388
18.1457
14.0518
3.44278
18.0492
22.2609
21.7482
23.2986
2.33867
1.32557
13.9189
-1.11964
-0.323455
13.699
9.15311
14.5881
14.4677
17.3388
20.2753
21.2068
22.0021
21.9273
2.73285
0.106199
-0.537696
22.7004
6.22853
22.2013
21.5271
19.1414
17.1361
18.7
1.71199
1.22116
0.501208
0.796984
5.20823
2.41449
0.620808
17.6522
2.14582
1.41211
0.704384
21.5238
0.125372
0.586756
14.3353
12.5367
19.9632
20.2163
-0.812771
-0.206049
5.94319
0.460964
0.157845
16.9233
17.5861
2.2342
7.31435
0.673257
20.6922
4.7423
19.5254
19.1917
23.1878
22.5138
6.74162
19.3837
20.0097
1.81549
2.09695
9.78482
6.04171
17.6548
5.50424
-0.672728
22.6352
23.2862
13.4114
7.46911
18.6878
1.48086
7.61613
9.23332
19.3202
20.1207
21.0429
8.75192
21.0252
23.1395
22.8224
13.0753
12.8954
2.78399
2.62438
7.19115
21.9336
9.21171
20.62
5.01519
22.48
23.3173
21.4835
23.524
6.90079
19.0987
9.80644
23.3678
23.8393
17.443
-0.309013
0.348109
18.7959
9.9639
11.0714
2.05539
3.08823
22.7138
8.25518
14.1806
18.6474
-2.57281
-0.31445
13.658
20.4726
14.488
21.6058
22.0801
21.5986
19.0441
12.9576
16.5673
19.3332
21.6016
1.02502
21.3021
14.6058
22.6999
21.469
19.3583
19.0183
20.9907
21.1653
6.24125
11.0112
12.4831
22.9363
1.12984
-0.717011
17.234
22.3584
22.3562
19.3034
12.3955
12.4523
22.2349
-0.219317
-1.17351
19.3582
7.74686
17.8535
-0.280431
-1.85251
1.95887
22.8229
3.11678
0.591052
-0.0669345
0.460553
0.0551976
1.5125
15.463
11.911
22.2186
22.607
13.5845
13.2695
21.65
20.4318
22.2327
11.4487
20.8555
22.3631
21.579
21.2473
21.5833
18.1124
21.5128
14.4664
20.5593
23.5334
-0.882756
0.907547
14.9315
20.2878
22.8006
18.7493
15.5352
1.14865
9.4677
0.409086
21.1033
19.2896
19.8738
23.1836
22.5755
14.8635
15.0646
19.4668
21.1273
18.2078
0.0652766
-1.03661
6.37444
6.72856
21.0308
19.6326
21.8643
23.8448
15.1616
2.71246
21.277
13.7356
22.4782
23.3347
21.5642
3.79316
-0.666966
18.0363
19.8673
14.6742
6.06424
11.8721
21.0048
23.5507
3.81148
3.52057
23.7434
2.59022
0.189713
12.8087
2.34451
10.5737
16.7493
9.71809
-0.958932
-1.67817
2.93688
20.3403
19.7793
16.0654
13.3905
6.75488
13.88
5.09418
4.70962
17.8327
-0.465165
0.420457
0.18789
23.3929
17.8665
0.0162722
0.667513
20.8211
21.292
17.5923
13.8093
23.2626
21.3359
0.53265
23.0381
21.8518
13.3434
21.8414
-1.16753
-0.208071
21.9532
22.7884
22.4014
-0.372202
23.2699
19.6475
22.7988
21.1125
23.9362
21.8994
23.4518
23.314
23.061
22.3185
23.0023
7.14926
-0.171163
-0.155717
21.058
8.56643
9.42572
5.42069
15.5403
14.1329
22.4479
17.6466
8.37785
18.0949
18.1447
5.54599
8.08221
20.8697
20.3695
2.02103
0.294311
17.0222
9.32401
0.540066
21.8667
21.4547
21.424
6.91174
12.1089
21.3068
0.397952
0.842086
10.7208
17.6326
0.634406
0.899732
9.04179
0.956349
1.12047
13.4248
13.4685
9.46892
5.53161
18.0589
22.4461
22.9571
20
19.9176
21.8568
21.4315
13.4979
1.65755
17.1861
23.4997
21.7266
19.2562
-0.588966
0.26177
21.5214
8.41735
14.606
15.1071
0.274107
1.60446
7.3906
22.8779
7.63065
1.5482
18.3076
20.0565
-0.426297
8.76522
10.2386
0.860541
16.0074
0.0948109
-0.838044
0.722552
-0.692953
15.6671
8.74546
21.9145
23.0885
21.0451
1.16868
16.9865
11.5571
6.75417
5.81857
10.3452
21.0146
3.22307
22.833
23.3404
12.763
3.09724
7.37394
9.66447
6.71493
20.2698
22.5107
-0.683939
0.00658131
8.15254
16.2034
0.769684
0.732059
22.8784
13.8954
21.0339
23.5555
7.57375
8.81109
21.7461
16.5282
23.3293
13.7569
20.8753
20.1795
22.0527
12.4033
13.2725
-1.15435
-0.1165
11.7805
15.8232
21.5307
20.6486
1.89101
5.67244
7.67088
18.3188
21.96
9.60843
1.75788
21.6217
11.8302
12.6341
2.28201
1.37446
10.4475
11.0353
7.0844
8.04356
0.843414
0.585098
15.0268
17.9213
16.1897
14.4445
22.6676
21.6528
15.7679
15.0381
4.26492
6.54459
22.5956
21.8497
2.92148
24.2665
-1.87994
0.418957
-0.062833
0.375107
7.8415
16.4484
19.5948
19.7627
21.3863
23.3613
1.01411
-0.594288
2.80952
22.5308
6.26669
-0.555662
-1.77711
6.91574
-0.824991
-1.87043
19.7166
21.6983
23.9263
11.0131
10.1223
17.7652
17.7093
22.1646
21.5506
22.8569
18.7419
19.6592
1.02556
-0.700972
21.7214
21.7632
0.208377
6.04797
2.00725
17.1865
2.88144
22.6162
1.49649
20.3089
13.4905
9.72595
18.2091
21.2688
-1.43476
18.2022
18.7717
8.40623
20.6599
4.71015
22.6725
-0.348756
-0.0224694
9.37345
1.24446
3.89286
9.42413
10.0583
21.1011
9.59476
0.84176
-0.185321
-2.09088
18.0623
17.6889
21.09
5.19106
18.0425
19.6331
21.695
0.0256661
21.1055
17.029
6.74776
-0.14309
0.438323
19.3123
7.6797
0.799701
17.3967
-1.10085
8.75222
17.0897
15.9762
11.4248
9.37055
1.31527
1.69459
-0.162018
13.7647
20.6187
22.5419
2.59324
7.91034
12.7991
1.79718
-0.41422
21.4473
5.64913
18.134
11.1836
2.44924
8.21426
-0.354417
-2.28309
12.7704
13.8866
0.0880179
0.414931
7.12378
20.638
16.9548
21.8855
1.05152
-0.579181
13.7183
14.5458
15.8499
15.9564
12.6697
9.64885
16.0623
9.82672
16.5498
17.0934
20.9675
7.14178
18.2125
9.09246
8.90504
3.91833
14.9443
16.9892
4.15672
22.0917
13.182
22.0131
-0.0605671
-0.417511
9.23682
10.9939
22.3156
22.8905
1.33593
-0.935829
13.1803
21.2247
20.5108
4.78871
23.5016
-1.38397
-0.490499
0.949184
18.3048
22.274
22.8547
3.40701
18.3744
21.6497
1.04545
22.3109
8.49928
22.7112
12.2799
17.6004
1.65901
1.04525
18.925
19.6087
21.7288
12.4478
13.3424
0.313029
22.3186
3.28072
17.375
18.1595
21.6524
17.1482
2.96519
23.428
20.9462
6.45517
5.90789
19.5833
9.37393
23.6021
23.2171
21.4491
0.391402
0.883518
15.2079
12.3267
10.4023
6.16667
0.487376
-0.892274
4.40584
4.76711
-0.58405
0.926924
0.313763
1.29243
21.158
19.052
21.7131
7.52705
22.7879
1.53461
18.8424
14.6723
13.6704
-0.415033
0.237733
12.8934
11.5634
1.81572
22.0109
20.8267
23.977
20.0447
21.9875
9.87189
21.8087
22.0196
21.3391
1.55917
0.95762
0.300624
-0.314231
10.1113
0.885682
-0.746785
22.0408
21.531
22.5834
19.9005
14.2187
14.4805
14.191
14.5905
14.9741
19.0978
16.5636
16.3485
19.0091
22.7526
22.8675
14.9718
6.40388
12.3911
0.16977
-0.0539676
21.1928
22.4581
3.79077
1.05657
0.585547
20.45
0.153327
-1.1568
17.8186
16.337
17.8803
-0.116513
-1.39602
17.2343
21.2073
21.2091
18.9073
18.8427
2.41034
-0.0762658
0.75603
9.95277
17.2625
13.7767
0.605388
-0.535832
-0.864812
0.416271
20.1263
1.23503
22.5853
20.9574
14.2129
1.46773
-0.858348
6.24559
18.5166
22.2578
6.79456
22.5089
8.26724
19.9951
7.59996
14.7899
22.1359
12.8606
15.3101
9.98579
18.5261
21.2885
1.23099
0.981297
0.368487
0.68326
21.1935
18.6556
22.2875
6.02639
1.25768
14.4921
17.3504
19.4429
-0.488858
10.9984
6.28014
23.3072
20.2707
13.629
13.4676
10.5421
14.1502
0.598067
19.4922
2.6717
16.1319
22.1426
23.0312
16.2372
0.783082
22.4105
1.38303
9.6202
0.817129
14.8356
13.931
7.47836
22.2423
0.955709
22.0639
21.8427
15.4005
17.8708
18.3819
7.68455
11.2238
17.7784
14.9131
19.7278
-1.11178
-1.68416
22.472
21.2208
21.5676
-0.408597
20.5455
1.51753
0.385067
0.33104
23.6642
18.6604
19.1117
1.76475
5.36875
19.2693
4.81224
5.97408
19.8227
-1.6247
-0.692443
19.6301
0.522473
21.9114
20.4559
16.9762
14.9116
18.1086
10.0508
22.4905
12.1773
22.1688
8.07881
21.2667
15.6012
2.67403
18.8405
2.16787
21.0742
2.17861
0.881674
-1.50223
20.7755
23.0608
21.6652
12.26
12.2519
21.8025
15.1667
9.79675
12.5823
14.4929
22.5317
6.53812
17.8837
13.9419
20.3989
22.432
21.5534
12.7374
10.6935
0.121504
-1.73045
20.2934
0.204393
-1.49169
13.4101
20.7832
21.1071
-0.179174
0.121533
14.5635
4.66432
15.1885
23.2176
16.5839
9.85099
0.600898
2.45368
16.0505
13.8782
20.8422
18.5549
14.8
19.938
7.43672
7.22724
21.0391
17.7917
-0.352799
-1.36836
8.23545
7.37385
21.8108
11.2251
17.5208
8.30459
18.9896
20.0307
6.94307
16.6384
7.4549
21.6491
16.7822
2.50427
0.777047
-0.207656
11.8382
22.3476
13.263
21.4744
6.68248
0.726815
0.823069
20.2723
13.3237
1.27226
0.376973
0.162689
17.7351
0.563746
18.3762
23.1704
2.10353
1.74526
3.20086
14.5699
4.20252
9.49894
8.32964
19.0763
17.1362
21.7819
17.5241
18.3144
17.743
21.2856
4.21246
1.46655
18.9118
14.2609
6.50432
0.784636
-0.237695
-1.23165
6.74942
4.02313
22.3609
14.7567
3.89333
22.4299
2.45961
17.6457
0.732352
-1.88873
-1.03222
13.908
15.4378
0.892952
21.4448
15.2832
16.3628
18.7526
19.4886
2.14658
19.1692
2.46563
22.6759
0.500693
18.6445
18.8698
12.2493
-0.735803
0.140792
11.564
9.84786
7.89153
22.7658
5.01633
10.3022
-1.15586
1.33534
-1.5562
1.04897
20.2617
6.59594
15.3138
21.0481
21.4505
20.89
13.8572
10.9662
10.6138
15.8134
15.5795
-2.33237
-0.636801
20.9569
3.18115
0.67662
1.00611
-0.619567
-1.70947
20.2096
0.0247728
8.26677
22.7273
18.0887
14.4924
16.6572
22.4412
22.3775
9.84554
11.5069
22.4569
-0.374324
0.789876
23.2457
14.8557
-0.935277
0.216483
18.9127
18.9776
22.8539
22.7789
0.506151
-1.16548
0.490037
7.21904
12.0998
12.3106
19.4699
21.6108
23.1224
18.7263
21.8569
21.1981
21.0174
17.437
18.7842
0.961031
20.7327
1.28002
21.1793
1.6015
20.2526
14.0091
0.892598
-1.50623
12.8078
5.62921
3.16017
0.204831
-0.151501
13.6448
-0.0642031
0.312248
22.0124
23.1055
3.6284
0.6199
2.00916
22.5543
1.64935
23.1291
22.303
10.8752
6.61531
-0.249295
-0.67875
19.4098
-0.239288
-1.8968
16.6134
17.1041
3.52553
8.47081
9.69336
22.5419
21.2004
22.1503
10.7916
13.8576
19.6054
0.011851
-0.873365
13.4206
22.7988
22.9949
20.4106
13.7891
2.49778
3.16486
3.99391
3.60346
0.817001
23.1922
10.9788
11.606
8.68263
13.5481
13.4207
15.2343
16.749
16.291
8.73661
20.9284
18.2423
15.7683
-0.560939
-0.926059
13.3057
-0.597211
-1.74099
17.4021
13.2853
22.0001
20.2
21.9293
22.4759
2.20143
2.21444
1.28803
-1.11854
16.4638
10.7127
14.7663
20.7903
21.7017
3.57027
18.2079
12.8541
5.12113
5.97177
-0.597308
-0.958033
7.65835
13.2058
21.1576
19.7461
9.0126
23.3641
2.5905
5.38447
16.3061
14.9506
2.45873
0.993645
-0.405885
17.298
-0.688217
-1.6587
20.6148
8.14881
14.3849
14.2978
11.788
10.8515
2.44598
14.4061
14.565
0.156588
15.046
-0.55883
-1.13359
11.3807
20.9453
16.0472
19.7033
21.8091
15.313
22.1214
19.2549
0.0358758
0.443878
9.6944
20.223
14.9465
-1.97097
-0.416255
11.4601
13.0383
1.34907
20.7283
-1.64955
0.347827
7.63356
22.6608
21.65
-1.86259
0.173025
21.4848
20.6348
0.870619
15.7524
9.6109
12.1402
21.7444
15.6608
7.05077
7.2673
21.4053
-1.09343
5.50588
16.5039
18.5101
16.0401
21.171
22.923
19.3415
17.529
-0.693536
0.464843
0.307517
0.542874
16.1653
2.95767
21.3493
17.677
20.8228
-0.151904
11.0855
2.38359
23.7103
20.7566
18.8511
12.3129
2.1246
9.08539
20.8713
19.6761
8.68378
0.437974
-0.0669595
15.8511
15.3957
20.9497
13.7269
0.0541101
-0.155891
19.253
12.9468
5.17328
2.3522
12.9679
1.01394
21.9705
21.8319
20.8524
-0.367094
0.641862
1.31787
-1.14727
-0.250308
-2.00642
10.2162
19.794
-1.83553
-0.624757
12.6885
19.5126
20.0352
21.0372
22.045
0.705275
-0.521815
-1.6202
-0.367087
0.106343
-1.07547
-0.716024
-1.54374
-0.394262
-0.864145
-0.629154
-1.35663
21.1931
20.0148
10.1639
5.99099
1.41536
17.5626
21.3299
21.4859
23.0696
23.0746
7.49368
6.86863
1.52601
11.0108
0.0212604
-1.40755
22.8379
23.0801
1.71957
0.360877
2.8484
-0.689785
-1.69783
7.11943
2.30634
0.904831
-1.52174
-0.14025
0.0580788
-1.33418
15.7011
17.0796
1.23704
0.787867
-0.653338
19.7739
16.1421
0.527182
17.4427
12.5517
20.3795
0.244565
-0.537124
-1.62308
0.691559
0.298837
18.4876
13.7306
3.03451
18.8315
20.43
1.61239
-0.767697
18.5417
13.9617
13.9638
1.71835
18.5182
21.4061
21.5239
20.5625
20.6132
19.001
20.1206
10.7006
-0.896593
-1.36863
17.2281
14.9166
23.8368
21.2532
18.6016
20.8498
8.08473
3.59638
12.5261
0.935355
11.528
13.1228
23.2984
16.8256
1.55691
18.0029
23.3947
23.2386
21.7125
21.5826
22.5844
11.1162
4.57806
7.36733
23.2271
20.5092
-0.110931
-0.455225
1.25717
0.774247
13.651
11.9783
21.8145
-0.14449
0.359509
19.0527
19.591
20.3253
16.7211
0.899255
0.558688
8.39436
2.18999
10.7509
23.7503
21.3538
17.1891
22.553
1.37336
20.281
21.4038
22.9269
2.91136
15.5513
2.39777
7.91925
20.7713
23.6999
23.8358
20.9484
3.74802
6.57005
16.4036
14.7137
-2.30567
-0.0802193
22.6511
15.9299
5.85026
19.0508
0.612964
-0.109576
1.50463
3.05683
2.72006
1.07093
8.30658
0.942057
6.39461
18.5751
2.56173
0.177858
2.02289
-3.85255
23.4013
22.2552
18.2134
24.1829
1.11504
7.01859
0.281026
-0.590106
22.572
23.2792
0.00571614
14.7241
15.5349
8.96127
9.71603
21.7098
21.9437
19.3008
-1.49242
0.755348
-0.692906
22.1564
2.15581
7.53641
20.7985
22.5321
4.66661
4.15103
20.4773
22.8764
20.098
23.3439
22.5922
19.7246
19.3109
18.5206
19.2011
15.3007
4.23607
4.44765
0.58102
9.85784
18.7687
22.8623
4.57988
4.10058
22.1937
21.2714
3.99572
3.80899
20.5001
18.425
4.18135
19.1758
-0.562333
0.402323
19.3873
20.2174
22.5741
23.2352
11.859
17.0195
3.80226
-0.83323
0.436359
0.932262
19.6422
-0.988176
1.29003
-0.328877
-0.702909
15.702
-0.0737545
1.22266
1.79179
1.29034
4.62099
20.6003
8.33066
18.582
0.693861
22.3763
1.98858
19.6278
17.8333
19.8483
21.1197
16.092
15.6214
18.881
20.1435
19.4843
11.8646
20.1606
3.73
1.4587
18.2926
8.02853
4.0773
21.3175
19.6936
9.31055
1.70195
22.9125
-0.422037
-0.154311
0.806927
22.0042
22.2012
1.22564
18.8161
3.3595
22.0283
22.0876
2.9819
2.5428
2.20406
19.5084
8.60464
6.18323
21.5791
13.6546
12.5111
1.68384
11.1421
21.4722
-0.0667635
-0.615943
19.1956
11.7153
20.0088
3.54775
3.83386
-1.22962
0.981614
1.27423
3.91149
0.618731
2.99555
8.42478
2.45754
5.80808
1.30863
8.24284
20.7956
22.0068
22.387
21.3754
20.6916
0.992104
17.6862
9.39919
20.5137
22.4555
22.2843
17.664
0.0206886
21.2168
12.6803
13.9764
1.38047
1.44086
13.3812
10.8009
21.9332
20.9712
20.8825
18.7666
0.259023
-0.528431
1.93059
18.7065
19.8456
5.95346
9.20429
0.591394
0.978338
2.20697
19.6303
-0.706542
0.598663
-0.457164
-0.615101
0.548712
0.0287846
23.3423
21.1064
18.8126
20.6024
-1.36697
0.670255
8.43104
2.31224
0.323336
2.36376
4.4943
20.9294
22.5125
18.1477
3.13147
21.3969
21.1694
-0.271367
0.274831
17.0959
17.4894
21.882
20.8048
20.8855
2.84666
17.3809
11.5341
4.29809
2.19455
20.4949
20.4726
14.6036
13.582
1.32154
1.68884
17.0533
18.2927
22.1146
21.8329
1.50056
1.90705
23.0557
19.664
14.8186
17.1236
1.01171
11.4653
20.856
20.872
3.00531
21.1432
21.6225
20.1447
19.9939
19.7308
2.90994
2.49947
22.6348
0.954314
21.8386
20.6539
2.40759
2.98104
10.2834
14.779
12.9144
15.9276
20.9746
0.314124
17.0951
21.4439
13.4065
20.4038
15.7335
17.7657
4.32164
3.33168
14.0769
14.9752
19.3157
-0.856087
-1.52572
21.2318
4.41012
14.9113
3.3666
6.23428
7.11771
21.5445
16.9783
16.9366
21.1855
11.28
0.989379
0.697454
8.75629
4.28579
3.79709
10.6985
21.8665
22.6313
-1.68632
0.627109
19.5009
22.371
21.3381
22.6145
21.9209
3.88176
18.8636
10.7539
21.3976
6.5272
19.7921
15.8901
15.1186
18.869
19.0679
0.792769
4.70163
4.01252
18.3554
19.5661
3.64044
3.74472
2.80782
0.214529
-0.794508
20.974
20.9714
0.436518
0.809298
-0.0703902
-0.551138
15.2283
12.0875
21.2036
20.4488
22.8661
21.2499
19.9893
19.2596
18.5706
5.16829
4.92403
15.5032
22.4356
2.89539
3.66873
2.69336
8.96195
7.08462
5.711
0.690094
17.5342
16.7547
22.9252
3.16967
-0.362656
-1.95887
6.13008
6.80617
1.80003
1.75425
5.93803
7.17944
0.0147981
20.0563
19.2541
6.3344
7.89098
6.13395
20.2371
5.0247
6.73187
4.53755
4.32731
1.4169
-0.910423
3.23288
5.67056
21.4786
20.1234
5.34144
5.88005
20.8278
20.0692
15.567
20.4756
19.3807
17.4314
14.7665
18.8673
19.0065
)
;

boundaryField
{
    frontandback
    {
        type            empty;
    }
    simetry
    {
        type            symmetry;
    }
    inlet
    {
        type            zeroGradient;
    }
    outlet
    {
        type            fixedValue;
        value           uniform 0;
    }
}


// ************************************************************************* //
