/*--------------------------------*- C++ -*----------------------------------*\
  =========                 |
  \\      /  F ield         | OpenFOAM: The Open Source CFD Toolbox
   \\    /   O peration     | Website:  https://openfoam.org
    \\  /    A nd           | Version:  7
     \\/     M anipulation  |
\*---------------------------------------------------------------------------*/
FoamFile
{
    version     2.0;
    format      ascii;
    class       surfaceScalarField;
    location    "0.1";
    object      phi;
}
// * * * * * * * * * * * * * * * * * * * * * * * * * * * * * * * * * * * * * //

dimensions      [0 3 -1 0 0 0 0];

internalField   nonuniform List<scalar> 
2956
(
-8.31837e-07
3.36886e-07
4.94951e-07
-9.1462e-07
3.45416e-07
5.69204e-07
4.30786e-07
-1.19032e-06
7.59539e-07
-6.37051e-07
1.06784e-06
-3.97817e-07
-2.4079e-07
6.38607e-07
8.78896e-07
-5.69184e-08
-8.21978e-07
-7.69759e-07
-2.83744e-08
7.98133e-07
3.6701e-07
-3.67959e-07
9.49631e-10
5.56386e-07
-5.86303e-07
2.9917e-08
-5.61736e-07
6.91087e-07
-1.29351e-07
-4.17984e-07
7.27348e-07
-3.09364e-07
-5.46674e-07
3.92731e-07
1.53943e-07
-4.04672e-07
-1.42002e-07
4.51789e-07
-9.68237e-09
-4.42107e-07
7.43004e-07
-2.91215e-07
1.43833e-07
5.48905e-08
2.20616e-07
6.56212e-08
6.1168e-07
-3.06194e-07
-3.05486e-07
-1.78441e-07
7.48307e-08
1.0361e-07
-2.53358e-07
1.39387e-07
1.13971e-07
-1.80125e-07
7.53567e-07
-5.73442e-07
-2.06941e-07
3.83545e-07
-1.76604e-07
-1.21342e-07
2.96638e-07
-1.75296e-07
4.46385e-07
4.18959e-07
-8.65345e-07
1.15677e-06
-7.10388e-07
6.30165e-07
2.48732e-07
-6.36199e-07
9.91792e-07
-3.55593e-07
-7.39835e-07
1.03636e-07
3.54008e-07
3.88995e-07
-5.71433e-07
7.22604e-07
-1.51171e-07
-2.17425e-07
7.33819e-07
-3.21507e-07
-4.12312e-07
-3.52799e-07
4.52697e-07
-9.98978e-08
7.24478e-07
-3.36724e-07
-3.87754e-07
4.86147e-07
2.38331e-07
-1.45986e-07
-1.3928e-08
1.59914e-07
-2.66004e-07
5.53155e-08
2.10689e-07
7.79822e-08
8.40218e-07
-9.182e-07
5.30789e-07
-4.52807e-07
-7.32079e-07
-7.75637e-09
4.27593e-08
-1.47606e-07
1.04847e-07
1.3126e-07
-1.91453e-07
6.01932e-08
6.91425e-07
-3.86178e-07
-3.05248e-07
5.17877e-07
9.38026e-08
8.89103e-07
-6.6781e-07
-2.21294e-07
4.96305e-07
3.21304e-07
-8.17609e-07
1.42889e-07
2.49055e-07
-3.91944e-07
4.59824e-08
5.67644e-07
-6.13627e-07
-4.58155e-07
5.04137e-07
9.12727e-08
-4.89089e-07
7.79744e-07
-2.121e-07
4.76649e-08
-2.92437e-08
1.73077e-07
-3.85314e-08
2.59148e-07
7.07296e-07
-7.64214e-07
3.6701e-07
-7.86609e-07
1.68498e-08
-2.98129e-07
-4.7132e-08
3.45261e-07
5.11012e-07
-1.93298e-07
7.37687e-07
-3.48712e-07
1.03915e-06
-7.40467e-07
-2.98686e-07
-1.55387e-07
6.51693e-07
-5.24384e-08
-3.0036e-07
-8.0833e-08
2.83942e-08
-5.657e-07
7.80984e-07
-2.15284e-07
-5.38923e-07
3.83536e-07
1.54568e-07
3.33779e-07
-5.74569e-07
-5.85615e-07
4.0549e-07
-8.30304e-08
2.16088e-07
-1.33058e-07
1.70991e-08
1.82621e-07
-1.9972e-07
-6.54084e-07
3.86716e-07
2.67368e-07
-2.5813e-07
1.75099e-07
-2.46797e-07
2.63896e-07
1.14318e-06
-1.04027e-07
-5.16012e-07
-2.44198e-08
5.40432e-07
-7.01874e-07
1.85862e-07
-2.22316e-07
-3.994e-07
6.21717e-07
-8.47515e-07
6.25199e-07
2.67815e-07
3.39152e-07
-6.06967e-07
-3.97456e-07
-5.12489e-07
9.09945e-07
-1.88577e-07
-7.2603e-07
9.14607e-07
-6.48797e-07
9.08291e-07
-2.59494e-07
6.60576e-07
-5.05289e-07
-1.55287e-07
2.55386e-07
-1.06653e-06
8.11143e-07
-8.69101e-07
1.10816e-06
-2.39063e-07
1.86607e-07
-5.49606e-08
-1.31647e-07
-7.21224e-07
5.32648e-07
2.09395e-07
-2.53163e-07
4.37685e-08
-7.73102e-07
2.11367e-07
4.89703e-07
1.37371e-07
-9.46117e-08
1.84581e-07
-5.33205e-08
7.04882e-07
-9.85711e-09
-6.95025e-07
4.83707e-07
7.26788e-08
-1.30291e-06
4.33808e-07
3.63801e-07
-1.54405e-07
6.51108e-07
-2.67743e-07
-3.83365e-07
6.63375e-07
-3.42071e-07
-1.09471e-07
-2.95201e-07
2.65618e-07
-3.75089e-07
8.1479e-07
-7.84834e-07
-2.99556e-08
7.57888e-07
-2.72341e-07
-4.85547e-07
3.8331e-07
-5.56102e-07
1.72792e-07
-3.71649e-08
-6.59921e-08
2.5256e-07
-6.70544e-07
-3.6937e-08
-7.0353e-07
1.95548e-07
4.97012e-07
-6.9256e-07
-6.99341e-08
-1.83424e-07
-5.89797e-08
-1.19461e-07
-7.63184e-07
2.06721e-07
5.56463e-07
-2.60986e-08
-7.37085e-07
7.51007e-07
-5.55458e-07
4.05715e-07
-6.40704e-07
2.34989e-07
-6.68058e-07
-5.06391e-08
7.18697e-07
6.02816e-07
2.33876e-07
-8.36692e-07
-3.76979e-07
5.83699e-07
7.93848e-07
-3.91695e-07
-4.02153e-07
-1.15814e-07
3.02422e-07
-7.02889e-07
3.2591e-07
-4.87246e-07
8.26547e-07
-3.39301e-07
-3.74737e-07
3.65055e-07
-7.48071e-07
7.11134e-07
6.72023e-07
-1.93133e-07
-4.7889e-07
3.94712e-07
2.77311e-07
1.32691e-07
3.30323e-07
-4.63014e-07
5.18277e-07
-3.85586e-07
-1.03451e-06
2.07831e-07
-7.16224e-07
5.08393e-07
-9.12137e-07
2.89746e-07
6.22391e-07
8.10877e-08
5.99444e-07
-6.80532e-07
7.33114e-08
5.81333e-07
-6.54644e-07
-7.41422e-07
2.83267e-07
4.86487e-07
4.43021e-08
2.54072e-07
-8.60655e-08
-1.68007e-07
4.48519e-07
3.45329e-07
-1.5692e-07
8.05547e-07
-6.48627e-07
-7.9068e-07
6.33761e-07
5.01563e-07
6.41617e-07
4.40297e-08
-2.9824e-07
2.5421e-07
6.87338e-08
-3.5671e-07
2.87976e-07
-3.24745e-07
-2.78589e-07
6.03334e-07
-3.57647e-07
7.93215e-07
-4.35567e-07
6.59995e-07
9.7893e-08
-1.38172e-07
-4.82108e-07
6.2028e-07
1.01225e-06
-8.40271e-07
-1.71978e-07
5.0171e-07
2.32109e-07
-8.67729e-07
-1.31393e-07
9.99121e-07
4.70861e-07
-7.41666e-07
2.70805e-07
6.19716e-07
1.42006e-07
-7.61722e-07
-2.05535e-07
6.02874e-07
-3.97338e-07
-1.73096e-07
9.22627e-08
4.34765e-07
5.77483e-07
5.44289e-07
-2.76473e-07
-5.39983e-07
-1.61891e-07
-4.39318e-07
2.36896e-07
-5.94543e-07
6.02815e-07
1.32763e-07
6.62451e-09
7.77196e-08
-2.88897e-09
1.01102e-07
-3.54708e-07
2.53606e-07
3.96096e-07
2.95329e-07
-4.14792e-07
7.11644e-07
-2.96852e-07
1.83444e-07
-5.98236e-07
4.1291e-07
-4.1291e-07
3.2271e-07
-3.2271e-07
-9.76727e-07
3.58638e-07
6.1809e-07
7.94251e-07
1.79195e-07
-9.73446e-07
-5.75486e-07
-7.94306e-07
2.18821e-07
-7.5722e-07
-1.59865e-07
9.17085e-07
8.09763e-07
-3.38739e-07
-4.71023e-07
-4.82773e-07
2.40108e-08
4.58763e-07
6.35714e-07
-2.25267e-07
-4.10447e-07
4.30312e-07
2.05401e-07
8.90311e-07
-1.92205e-07
-6.98106e-07
4.57223e-07
-4.57223e-07
5.56844e-07
-6.90602e-07
1.33758e-07
-1.0205e-08
1.6522e-07
-1.55016e-07
8.79011e-08
6.49916e-08
-1.52893e-07
7.04388e-07
-2.53354e-07
-4.51035e-07
3.84815e-07
3.19574e-07
2.6963e-07
-1.5557e-08
7.26247e-07
2.61282e-08
-4.6509e-07
4.38962e-07
-7.30514e-07
5.18415e-07
2.933e-08
3.8358e-07
2.53295e-08
2.9738e-07
-8.53941e-07
7.34084e-07
1.19857e-07
-4.34982e-07
-6.80548e-07
-1.71163e-08
6.97664e-07
-1.38388e-07
1.91581e-07
-5.31925e-08
-1.46676e-07
1.36634e-07
1.00411e-08
1.4068e-07
-1.50885e-07
1.83556e-07
-9.56552e-08
5.78096e-07
-1.72381e-07
2.85043e-07
5.2472e-07
-2.78639e-07
6.68495e-07
-3.89856e-07
-6.02815e-07
-2.08418e-07
8.11233e-07
2.70741e-08
4.26023e-07
2.25085e-07
1.7333e-07
1.79186e-07
7.29104e-07
-3.31003e-07
-3.12649e-07
6.43652e-07
-3.31731e-07
6.52175e-07
-3.20444e-07
9.5155e-07
-1.57299e-07
-7.02967e-07
2.6086e-07
6.78784e-07
-5.657e-07
3.63932e-07
-6.30023e-07
2.66091e-07
-2.79187e-07
6.01119e-08
2.19075e-07
-3.10282e-07
3.1095e-08
2.59403e-07
-5.91134e-07
1.07324e-07
-3.14265e-07
1.09073e-07
-2.30415e-07
-3.8825e-08
7.46121e-07
3.41716e-07
-8.14554e-07
4.72838e-07
5.18543e-07
-6.10973e-07
9.24297e-08
-2.80952e-07
7.99495e-07
-3.63815e-07
-6.66591e-07
3.60397e-07
6.79783e-08
-5.79887e-07
5.11909e-07
3.74138e-07
-6.52778e-07
-6.03492e-07
-7.7056e-08
-7.97532e-07
-1.97695e-07
2.41725e-07
-2.25289e-07
2.94023e-07
-6.78837e-07
5.40665e-07
-9.72198e-07
1.03461e-07
8.68737e-07
6.96838e-07
1.29709e-07
5.53629e-07
-4.85651e-07
6.44956e-07
-4.30152e-07
-2.14803e-07
-1.7942e-07
6.72596e-07
-4.93176e-07
1.83872e-07
-5.7005e-07
3.64356e-07
-5.89624e-07
-3.10009e-07
6.74365e-07
3.97369e-07
-7.20405e-07
3.23036e-07
-2.78498e-07
6.75867e-07
-9.64115e-07
9.12081e-07
5.20344e-08
-2.98033e-07
2.98033e-07
-3.76518e-07
3.76518e-07
-4.82801e-07
3.03381e-07
-5.32539e-07
2.33128e-07
-7.65667e-07
-5.08295e-07
-6.68058e-07
6.3948e-07
9.82068e-08
4.82376e-07
2.86362e-08
-5.66805e-07
1.13998e-07
-1.09257e-06
5.25768e-07
1.29058e-07
4.06872e-07
-5.3593e-07
-3.4829e-07
7.38027e-07
-3.89737e-07
1.58256e-07
9.89434e-08
-8.01519e-07
5.04607e-07
2.96912e-07
-7.03636e-08
-4.72767e-08
1.1764e-07
-1.61912e-07
-2.40954e-08
1.86007e-07
1.64165e-07
5.63183e-07
6.67364e-07
-5.03199e-07
-7.91458e-07
-1.01298e-07
8.92755e-07
-4.09892e-07
8.19093e-07
-4.09201e-07
9.89494e-07
-6.32841e-07
-3.56653e-07
4.3636e-07
-7.78534e-07
3.42174e-07
-1.13757e-06
1.73455e-07
3.27795e-07
3.17161e-07
6.70666e-07
-2.87356e-07
-3.06059e-07
-5.25778e-07
-5.98184e-07
-3.16436e-07
-6.93271e-07
-1.08247e-07
7.53987e-07
-4.15277e-07
-3.3871e-07
3.96993e-07
3.56994e-07
-8.75596e-08
-6.78107e-07
-2.31344e-07
-5.62962e-07
9.05827e-07
-1.18473e-07
-7.87353e-07
-5.49605e-08
-7.20051e-07
6.27213e-07
9.28374e-08
-8.27519e-07
-1.4468e-07
3.51741e-07
-2.44203e-07
-1.07538e-07
-3.49029e-07
-3.57559e-07
-2.52786e-07
3.53888e-07
-4.95008e-07
9.99614e-07
6.90573e-07
-3.5519e-07
-3.35383e-07
2.24841e-07
1.26898e-07
-3.51739e-07
1.39765e-07
7.50546e-07
7.51667e-07
1.54159e-07
-7.3188e-08
5.4526e-07
-4.72072e-07
-6.23751e-07
7.48863e-07
-1.25113e-07
-4.40306e-07
-3.02422e-07
-1.80351e-07
-5.43005e-08
4.36498e-07
-8.43845e-07
4.07347e-07
4.68697e-07
6.88076e-07
-3.54708e-07
4.41938e-07
-2.74304e-07
-1.67634e-07
4.42389e-07
-4.5106e-10
7.03187e-07
-3.61471e-07
5.70284e-07
-6.95146e-07
1.24862e-07
5.91787e-08
1.89876e-07
-8.76436e-08
-5.82394e-07
6.70038e-07
7.7542e-07
-6.71959e-07
-1.25236e-07
-1.99489e-07
7.84411e-07
-4.10273e-07
7.24809e-07
-2.88311e-07
-8.94728e-07
2.01457e-07
6.33943e-07
3.13166e-07
-9.47109e-07
3.03681e-07
6.48566e-07
-2.84634e-07
-7.74822e-07
2.12072e-07
5.6275e-07
3.85088e-07
9.32819e-08
-2.2928e-07
1.35998e-07
7.96746e-08
-1.72763e-07
9.30879e-08
-1.17903e-07
5.34865e-07
-4.16963e-07
-7.56436e-07
-1.564e-07
9.12837e-07
-1.7598e-08
-7.38838e-07
9.00506e-07
-3.01062e-07
9.53446e-07
-3.72113e-07
6.51327e-07
2.06279e-07
-9.63499e-07
-4.73093e-07
6.43386e-09
-1.44822e-07
-3.92584e-08
-1.07417e-07
4.89884e-08
5.70727e-07
3.28992e-07
3.66195e-07
2.36679e-07
-1.93934e-07
-4.04302e-07
4.27748e-07
-6.21683e-07
-7.22678e-07
1.19187e-07
4.34439e-07
2.56648e-07
7.7342e-07
-4.14307e-07
-3.59114e-07
4.09955e-07
-7.40951e-07
7.59431e-07
-1.84798e-08
-5.12901e-07
-2.2805e-07
-4.62138e-07
-2.47264e-07
7.09402e-07
6.22077e-07
-5.17929e-08
-4.28681e-07
6.06967e-07
-1.78286e-07
8.58906e-08
-5.9118e-07
-4.89765e-07
-3.39205e-07
-3.87669e-07
7.26873e-07
3.22623e-07
-6.61827e-07
-8.30575e-07
6.83576e-07
1.46999e-07
-3.19425e-07
-5.11149e-07
6.43278e-07
-7.43175e-07
-5.81247e-07
6.59803e-07
-7.85565e-08
-5.98844e-07
-6.58468e-07
-1.85377e-07
2.8108e-07
3.47842e-07
-3.21681e-07
-3.9837e-07
3.71613e-07
2.80855e-07
-6.52468e-07
3.1282e-07
2.10893e-07
-5.23713e-07
5.70101e-07
9.77469e-08
-6.67848e-07
2.91266e-07
-5.0663e-07
7.97896e-07
-6.38613e-07
1.73524e-07
2.5664e-07
-1.02914e-07
-1.53726e-07
3.16611e-07
-1.98961e-07
-1.1765e-07
-3.94712e-07
6.41174e-07
-2.46462e-07
3.41913e-07
6.21735e-07
-9.63648e-07
7.36164e-07
-1.5845e-07
-5.77713e-07
-2.82002e-08
-1.19406e-07
-7.98648e-08
-1.11588e-07
-8.92294e-07
1.00836e-07
-4.30914e-07
7.68938e-07
-8.70236e-07
2.52325e-07
2.30051e-07
3.17108e-07
3.22372e-07
-4.61688e-07
2.68391e-07
-5.84152e-07
2.3544e-07
4.87154e-07
-2.62314e-07
8.07378e-07
-3.66734e-07
-4.40644e-07
-3.58786e-07
5.66618e-07
2.11444e-07
3.45019e-07
6.01157e-07
-3.89714e-07
4.59776e-07
3.13644e-07
-1.84392e-08
4.78215e-07
2.0989e-07
-6.95438e-07
-2.82063e-07
-3.04241e-07
7.72509e-07
-1.16572e-07
-6.55937e-07
6.67186e-08
3.41581e-07
-5.50783e-07
2.09202e-07
-2.90807e-07
-6.2133e-07
3.96254e-07
-7.29458e-07
3.33204e-07
-5.05893e-07
7.9564e-07
1.67751e-07
6.04759e-07
-2.99931e-07
-2.26713e-07
5.26644e-07
4.1194e-07
-5.34084e-07
-2.07582e-07
5.57511e-07
-2.1593e-07
-2.83059e-07
-3.82045e-07
6.65105e-07
1.84578e-07
1.63264e-07
5.99173e-08
2.21163e-07
-2.08808e-07
5.75002e-07
5.49361e-09
8.04507e-07
-8.10001e-07
7.82531e-07
-7.77038e-07
6.18472e-08
5.72096e-07
-7.56663e-07
3.63143e-07
3.9352e-07
-5.54982e-07
5.26607e-07
-7.25665e-07
-8.88884e-08
-1.04944e-07
-1.31132e-07
2.36076e-07
-2.55266e-07
6.5152e-07
4.77735e-07
-3.48678e-07
-6.34452e-07
-1.3865e-07
-5.26195e-07
-7.01519e-08
5.96347e-07
-2.17188e-07
-2.73576e-07
4.90764e-07
-6.04835e-07
8.98249e-08
5.1501e-07
-1.78813e-07
-3.25058e-08
-2.84287e-07
6.1461e-07
9.46054e-07
1.08093e-07
1.48546e-07
9.14464e-08
2.25165e-07
8.14382e-07
-1.71104e-07
-4.15092e-07
-7.55157e-07
9.31281e-07
-1.76124e-07
-9.56114e-07
7.24823e-07
2.31291e-07
4.87692e-07
-7.19387e-07
2.31696e-07
4.58676e-07
-7.3433e-07
2.75654e-07
3.99858e-09
-5.07092e-07
5.03093e-07
-5.81e-07
2.60773e-07
-6.09064e-07
4.83077e-07
-4.38775e-07
-6.89636e-07
3.40607e-07
-6.95494e-07
3.37935e-07
-1.16214e-07
-6.06464e-07
2.39402e-07
-3.25467e-07
-2.58164e-07
-3.9592e-07
-1.8267e-07
-5.72487e-07
-4.57962e-07
4.6196e-07
1.05327e-06
-6.1479e-08
-8.96729e-07
2.97355e-07
5.99374e-07
5.10992e-07
1.48913e-07
-6.59905e-07
-5.89118e-07
3.53654e-07
6.99617e-07
-9.87907e-08
7.53059e-07
-5.79729e-07
7.64095e-08
-7.64095e-08
1.50562e-07
-1.50562e-07
-5.50813e-07
-5.15716e-07
2.46746e-07
-9.32363e-08
-1.53509e-07
2.3513e-07
-3.04183e-07
6.90529e-08
-3.55814e-07
-4.00849e-07
6.44998e-07
-8.06076e-09
-6.36937e-07
7.91646e-08
-9.30926e-08
1.7046e-07
-1.15145e-07
8.13137e-08
-3.91738e-07
-3.86796e-07
3.88604e-07
7.17782e-07
1.22436e-07
-7.58797e-07
6.66926e-07
9.18709e-08
7.52215e-07
-2.89657e-08
7.6305e-07
-7.65877e-07
8.13541e-07
-2.61739e-07
-4.25693e-07
7.22804e-07
-2.97111e-07
1.41259e-07
-1.41259e-07
6.9944e-07
-1.22788e-07
-5.76652e-07
-3.27282e-07
-2.2882e-07
2.24935e-07
-1.31653e-07
1.70652e-07
-9.09777e-08
4.84255e-08
-5.24099e-07
4.75674e-07
6.73584e-07
-6.25158e-07
-2.85908e-07
-4.30316e-07
-5.45198e-07
-2.29624e-07
6.4897e-09
5.63612e-07
4.34512e-07
-2.53691e-07
-4.40754e-07
-8.96563e-07
5.57262e-07
-6.68972e-07
-9.65666e-08
-5.42047e-07
4.31042e-09
-2.03272e-07
8.58903e-08
-1.88804e-07
-4.2095e-07
-4.75613e-07
1.12532e-08
-5.40972e-07
5.29718e-07
4.86344e-07
1.78027e-07
-3.67683e-08
-4.41051e-07
6.51944e-07
3.19824e-07
4.33743e-07
-2.78131e-07
6.49744e-07
-3.09061e-07
-3.09913e-07
6.18974e-07
-2.35768e-07
-2.06753e-07
-5.76238e-07
2.84708e-07
-5.01897e-07
7.43202e-07
6.60145e-07
-3.7929e-07
3.23027e-07
-5.99729e-07
1.23067e-06
-6.30942e-07
-1.78129e-07
4.95237e-07
-5.70453e-07
3.92324e-07
-5.68322e-07
-3.87793e-07
5.47488e-07
1.55699e-07
-2.94901e-10
5.47783e-07
4.65397e-07
1.26485e-07
-5.91881e-07
3.94712e-07
5.6408e-08
6.63184e-07
-1.25805e-07
-5.37379e-07
2.65411e-07
-6.95563e-07
-4.57404e-07
7.99317e-07
7.01625e-07
-6.68099e-08
-6.34815e-07
-9.21485e-08
7.93774e-07
6.35353e-07
-9.78304e-07
3.42951e-07
7.18033e-07
-2.52635e-07
5.44275e-08
-5.67329e-07
4.43031e-07
-6.78402e-08
-2.30193e-07
-9.67149e-08
-2.79803e-07
-4.28681e-07
4.2589e-07
2.33914e-07
3.23702e-07
6.29146e-08
-3.86617e-07
-6.76724e-07
5.12804e-07
1.6392e-07
-3.13989e-09
2.0295e-07
4.93961e-07
-6.9691e-07
5.8336e-07
-7.75565e-07
-5.20529e-07
1.44612e-07
-7.23304e-07
5.78692e-07
2.70498e-07
-2.41169e-07
1.94395e-07
-1.69066e-07
-2.49818e-07
2.49818e-07
3.69378e-07
2.74275e-07
2.65412e-07
-1.56919e-07
4.04506e-07
-2.47587e-07
2.73941e-07
-6.98092e-07
4.24151e-07
-3.52073e-07
1.95154e-07
4.16597e-07
-1.64272e-07
5.0639e-07
1.6998e-07
-6.7637e-07
6.20388e-07
-1.83857e-07
-5.06745e-07
8.11573e-07
-7.83929e-07
1.85745e-07
4.49102e-08
4.41433e-07
4.54824e-07
-7.88841e-07
3.34017e-07
5.27846e-07
-6.01034e-07
3.31453e-07
3.60417e-07
-6.91871e-07
8.83398e-07
-5.51945e-07
4.89953e-07
6.33698e-07
-1.91309e-07
6.51626e-07
-2.6491e-07
-6.7788e-07
6.7788e-07
6.30698e-07
-5.56076e-07
4.2534e-08
-1.3863e-07
9.60959e-08
3.19876e-08
-8.08867e-08
4.88991e-08
9.79602e-08
3.3312e-07
-7.50657e-07
2.997e-07
4.50958e-07
-6.16899e-07
-2.16587e-07
6.09318e-07
-7.24882e-07
-8.55427e-08
8.37758e-07
4.83872e-07
-9.55322e-07
9.5169e-07
-7.72503e-07
2.91893e-07
-5.51299e-07
2.59406e-07
-4.8984e-07
-5.08936e-07
-6.15173e-08
-3.31669e-08
-8.34428e-07
-6.23012e-08
4.20349e-07
-6.67613e-07
2.68454e-07
-8.20207e-08
8.8108e-08
-6.08725e-09
-1.37215e-07
1.54405e-07
-1.71898e-08
7.4494e-08
-2.28219e-07
1.8238e-07
-3.00029e-07
3.56649e-07
1.00574e-07
-1.37305e-08
-7.76949e-07
-1.41874e-08
-6.75448e-07
3.94673e-09
1.85537e-07
4.77647e-07
4.77645e-07
-7.80141e-07
7.29502e-07
-1.16958e-07
-8.61235e-07
9.78193e-07
-1.14509e-06
3.36004e-07
8.0909e-07
-3.69675e-07
-1.14803e-07
-1.35016e-07
4.46048e-07
4.3735e-07
5.03539e-07
-2.64137e-07
-3.71655e-07
6.04156e-07
-2.32501e-07
7.19363e-07
-4.22008e-07
5.67565e-07
-6.98958e-07
7.58383e-07
-1.2303e-07
-3.18589e-07
2.65564e-07
5.30245e-08
8.27078e-07
-1.30189e-07
-6.96889e-07
1.05329e-07
6.77202e-07
-5.78206e-07
5.2011e-08
4.93632e-08
-1.86578e-07
3.84569e-08
-1.20478e-07
4.8885e-07
-9.28168e-07
2.33281e-07
4.20079e-07
-6.53361e-07
-1.61501e-07
6.91928e-07
5.29609e-07
-6.12769e-08
-7.72546e-07
2.66653e-07
-3.37856e-07
3.37856e-07
3.44704e-07
4.39707e-07
2.64446e-07
4.60363e-07
7.5737e-07
3.50794e-07
-5.30938e-08
-2.06795e-07
7.19599e-07
-2.73972e-07
6.4335e-07
-2.95513e-07
-3.98932e-07
5.35135e-07
-4.9675e-07
-1.04804e-07
6.01554e-07
3.78589e-07
3.59438e-07
-1.91805e-07
-4.48899e-07
-2.28002e-07
-5.30028e-07
7.5803e-07
-7.49682e-07
5.2168e-07
-1.72293e-07
-8.9406e-08
7.39995e-07
7.11475e-08
-5.9454e-07
5.50129e-07
-1.44993e-08
-5.35629e-07
-3.29932e-07
-3.93372e-07
-2.08077e-07
-6.62271e-08
3.40457e-08
-1.00347e-08
8.70947e-08
1.48035e-07
5.6051e-07
2.24953e-07
-7.85463e-07
6.18691e-07
2.05543e-07
-4.18118e-07
7.76755e-07
6.19637e-07
-1.08645e-07
4.30902e-07
1.1753e-07
-5.48432e-07
-1.59389e-07
5.90291e-07
-3.21967e-07
4.48866e-07
8.35922e-07
1.15767e-07
-4.70062e-07
3.91505e-07
-8.20815e-08
-3.8798e-07
1.35759e-06
-9.66905e-07
7.92147e-07
-3.71797e-07
4.86604e-07
2.96362e-07
6.08501e-07
-3.7522e-07
-3.24822e-07
-1.32401e-07
4.97123e-07
-3.55117e-07
5.9141e-07
-6.68466e-07
-1.87124e-07
7.78535e-07
4.73865e-07
-9.20129e-09
-4.64664e-07
-6.95518e-07
2.69824e-07
5.02408e-10
-4.15594e-07
-7.18421e-07
3.46766e-07
-6.3995e-07
3.30888e-07
6.51831e-08
7.5492e-07
-8.20103e-07
-7.96372e-07
4.52234e-08
1.46357e-07
-4.59853e-09
1.41233e-07
1.0562e-07
-1.29715e-07
5.14783e-08
-9.8755e-08
2.00935e-07
-6.10827e-07
-8.858e-07
2.77917e-07
6.07883e-07
1.54352e-08
4.39033e-07
-4.54468e-07
4.99142e-07
-2.23412e-07
-4.54469e-07
-2.64721e-07
1.91178e-07
7.35433e-08
-3.80982e-07
1.75293e-07
2.05688e-07
4.51081e-07
1.82617e-07
2.97181e-07
3.32621e-07
-6.29802e-07
2.20017e-07
-1.62208e-07
7.28024e-08
-1.871e-07
1.48063e-08
9.99318e-07
-1.7224e-07
-8.3044e-08
-1.66395e-08
5.51197e-07
-9.63731e-08
-5.08916e-08
-6.87506e-07
-4.68247e-08
6.92487e-07
-5.22506e-07
5.36086e-07
9.63911e-07
-5.06422e-07
-4.57489e-07
5.26369e-07
4.37543e-07
-1.40319e-07
5.52259e-07
-2.10933e-07
4.18299e-07
-5.58618e-07
-2.2011e-07
5.12002e-07
4.21065e-07
-2.95656e-07
3.09354e-08
-3.45644e-07
-3.53374e-08
7.07206e-07
-7.07619e-07
4.13013e-10
1.65467e-07
5.41739e-07
8.91984e-08
-2.2033e-07
-6.35252e-07
1.40244e-07
1.22117e-08
2.34534e-07
-4.78774e-07
-4.07025e-07
-7.52279e-07
8.17462e-07
-1.96423e-07
-5.28459e-07
7.20351e-07
3.48901e-07
-2.3608e-07
-1.12822e-07
-9.65011e-07
9.51281e-07
-6.32096e-07
4.05382e-07
-3.39711e-07
-4.9698e-07
-3.95962e-07
2.79375e-07
1.16588e-07
-4.0336e-07
-5.43749e-07
-3.05613e-07
-1.40136e-07
7.61871e-07
4.03483e-07
9.21333e-07
-6.24421e-07
-6.07529e-07
3.53838e-07
-2.03986e-07
5.86252e-08
1.45361e-07
-1.21651e-07
2.28057e-08
9.88454e-08
-9.28934e-07
2.22091e-07
7.06844e-07
3.97384e-07
3.94763e-07
-6.2465e-07
-9.60496e-07
8.42023e-07
5.49603e-08
6.63356e-08
-1.21296e-07
-5.57099e-07
4.3009e-07
3.89003e-07
-2.57072e-07
1.57725e-07
9.93474e-08
-1.4233e-07
1.52371e-07
-2.04388e-07
1.51195e-07
-7.52335e-07
7.69566e-07
-1.72306e-08
3.22281e-07
-6.43962e-07
6.8697e-07
-6.8697e-07
-5.72868e-07
6.76503e-07
1.69551e-07
8.99417e-07
-5.71623e-07
2.88588e-07
-5.25118e-08
-7.00948e-07
3.23074e-07
3.77874e-07
-6.38409e-07
-1.41732e-07
-8.2479e-09
1.23892e-06
4.1218e-08
2.16324e-08
6.07622e-08
-9.75153e-07
-1.97155e-07
-5.76594e-07
2.46662e-07
-2.11385e-07
-8.20731e-07
4.61358e-07
2.68144e-07
6.30511e-07
4.12865e-08
-8.75715e-07
1.02286e-06
-9.81576e-07
-2.59053e-07
2.39053e-07
3.06584e-07
-7.75539e-07
2.41455e-07
4.71072e-07
-4.27127e-07
-3.56802e-07
-3.6218e-07
6.28194e-07
7.58395e-07
-5.95164e-07
-1.63232e-07
1.04595e-07
-2.81855e-08
1.13794e-07
3.67683e-08
-5.61421e-08
9.37645e-07
-1.63128e-08
2.14743e-07
4.37373e-07
-6.52115e-07
-5.21116e-07
-1.55254e-07
-1.5148e-07
5.81792e-07
5.20168e-07
-9.60173e-08
-3.87194e-08
-9.04169e-08
4.06996e-08
-1.79789e-08
-4.01095e-09
-4.35231e-07
-2.65718e-07
-2.04032e-07
-4.34377e-07
2.8907e-07
-1.27896e-07
4.27063e-07
2.66187e-07
-6.93251e-07
9.18991e-07
-6.59588e-07
1.10282e-06
-1.76442e-07
-9.26378e-07
-2.3198e-07
6.5787e-07
-4.7889e-07
-1.96884e-07
1.4771e-07
2.90977e-07
4.2772e-07
3.47246e-07
4.63988e-07
1.049e-06
-2.61377e-08
4.64639e-07
4.80011e-07
-4.88072e-07
-4.48923e-07
-1.67126e-07
-4.09218e-07
5.76343e-07
2.84861e-07
6.3413e-07
-2.60816e-07
-5.79455e-07
-1.45017e-07
-7.13561e-07
-2.52775e-08
-2.36745e-07
-6.14947e-08
-2.80317e-07
-7.63922e-08
7.43246e-07
7.71329e-07
-2.80832e-08
-5.8189e-07
1.77588e-07
7.01704e-07
-1.72095e-07
3.07887e-08
1.47238e-07
5.10034e-07
-6.26993e-07
-2.29316e-07
-4.64333e-07
6.93649e-07
5.64126e-07
-6.62832e-07
6.55076e-07
3.80744e-07
-1.7804e-07
-2.52315e-08
-9.6096e-08
-9.27081e-08
6.51296e-07
-7.38856e-07
6.22357e-07
-4.19289e-07
7.08677e-07
-2.89388e-07
2.60537e-07
-6.79826e-07
-3.34759e-07
-3.33436e-07
6.55717e-07
5.34597e-07
-3.70677e-07
-6.56442e-07
-3.81655e-07
6.30658e-08
4.21453e-07
-6.28248e-07
1.04952e-07
6.95744e-07
-8.00697e-07
-6.28056e-07
-1.75116e-07
8.03173e-07
6.14979e-09
4.07181e-07
-4.01031e-07
-3.48295e-07
6.65455e-07
6.03841e-07
2.95576e-07
-2.10011e-07
6.85684e-07
4.14081e-07
-2.96552e-07
-1.22743e-07
5.36824e-07
2.50321e-07
7.21619e-07
2.15834e-08
-4.62088e-07
5.28707e-08
-5.38013e-07
6.29286e-07
5.93065e-07
2.59086e-08
-2.57962e-07
-2.93337e-07
4.4075e-08
-1.37311e-07
-4.82953e-07
2.23502e-07
4.88141e-07
-2.00544e-07
-5.53096e-07
7.5364e-07
-9.6788e-07
7.67336e-07
7.12566e-07
-3.09083e-07
-5.37497e-07
7.06442e-07
-3.25697e-07
4.79735e-08
1.02241e-07
-5.42547e-07
8.9721e-07
2.0561e-07
-5.98573e-07
-4.93999e-07
-5.21411e-07
8.80441e-08
-1.55761e-07
-7.24583e-08
-1.65619e-07
-1.34411e-07
-2.40674e-07
6.75439e-07
-2.49386e-08
2.77953e-08
3.68603e-07
-1.16677e-07
-2.51927e-07
3.01776e-07
-9.53731e-08
-2.06402e-07
-2.26553e-07
6.1786e-07
-3.91307e-07
4.72654e-07
-7.78268e-07
-4.39827e-07
3.52184e-07
4.46222e-07
-1.74334e-07
4.37637e-07
-3.04556e-08
-6.84021e-07
5.15479e-07
1.68543e-07
-7.00215e-07
-2.48419e-07
-5.54611e-07
8.0303e-07
1.01159e-07
5.4793e-08
3.63853e-07
2.43114e-07
-1.01755e-06
4.96141e-07
5.3398e-07
-7.65324e-07
4.7111e-07
-1.13192e-08
-5.6841e-07
5.26316e-08
6.96231e-07
-2.91563e-07
6.14638e-07
-9.18501e-07
-6.30754e-08
-6.84673e-07
4.92868e-07
-5.88528e-07
3.52678e-07
1.36271e-07
-8.13808e-08
1.76169e-07
-1.10548e-07
-2.94085e-08
-3.301e-08
-4.79123e-07
5.84075e-07
1.07001e-07
-1.74841e-07
1.42564e-07
-2.39279e-07
4.94165e-07
2.18401e-07
-7.94646e-07
6.78074e-07
1.76179e-07
-5.69551e-07
5.75682e-07
-4.55825e-07
7.27022e-07
-1.74478e-07
-5.52544e-07
3.67908e-07
-6.74782e-07
5.15393e-07
-4.46179e-08
-5.1779e-07
5.1779e-07
-3.82441e-07
-1.94153e-07
6.09272e-08
-4.43367e-07
-2.82565e-07
7.55219e-07
1.5308e-07
-5.9413e-07
6.48077e-07
-4.94997e-07
4.53027e-07
-4.53027e-07
3.12615e-07
-5.65251e-07
3.63853e-07
-2.18788e-07
-2.6988e-07
-4.68502e-07
1.94926e-07
-5.22555e-07
-1.86438e-07
-2.36741e-07
-3.33225e-07
6.93642e-07
1.05798e-08
7.75282e-08
4.30757e-08
1.11329e-07
5.4526e-07
6.61664e-07
-5.32121e-07
6.5332e-08
4.66789e-07
-1.03565e-07
1.14145e-07
-1.4314e-07
1.86215e-07
5.59238e-08
-6.8398e-07
-4.72072e-07
7.26845e-07
-7.51734e-07
-1.60496e-07
8.40864e-08
-2.0457e-07
5.40072e-08
3.01796e-07
-4.66069e-07
-8.81655e-07
-3.68458e-08
-4.71359e-07
7.78052e-07
2.06824e-07
-7.52791e-08
-1.31545e-07
2.93619e-07
-1.08257e-07
-1.85361e-07
1.50479e-07
1.03259e-07
-2.42385e-07
7.53993e-07
-5.11608e-07
-2.31269e-07
2.31914e-08
5.64604e-07
1.44073e-07
1.86092e-07
-8.1497e-08
1.44583e-07
3.46613e-07
3.43767e-07
-4.11012e-07
-4.82568e-07
-9.98264e-08
1.72165e-07
-1.44697e-07
-5.55519e-07
-5.04147e-07
-2.905e-07
-4.30552e-07
7.15413e-07
6.3209e-07
5.39175e-07
2.53064e-08
7.44259e-07
-3.59572e-07
-4.20849e-07
-3.98033e-07
-5.59534e-07
4.31548e-07
-7.69239e-07
4.9065e-07
-6.10233e-07
6.50295e-07
4.1633e-08
-1.114e-07
-2.26456e-07
2.36208e-08
-5.12309e-07
3.25277e-07
-3.00081e-09
-3.22276e-07
1.58939e-07
1.89963e-07
-4.73547e-07
-4.21181e-07
-6.52024e-07
3.56511e-07
7.43351e-07
-5.89859e-07
-1.53493e-07
1.86822e-07
2.33365e-07
-6.868e-08
1.35016e-07
1.52789e-08
-4.45594e-07
-9.92346e-08
-2.67825e-07
6.42492e-07
-5.44161e-07
-9.83317e-08
-7.30969e-07
4.8255e-07
3.63398e-07
3.5822e-07
-2.3608e-07
1.10793e-07
2.45387e-09
-4.52858e-07
4.50404e-07
-2.92353e-08
1.03085e-06
-2.68276e-07
-7.62572e-07
6.00296e-07
-4.13642e-07
-4.68013e-07
-7.28009e-07
2.512e-08
-3.00004e-07
-3.77743e-08
5.02792e-07
9.225e-07
-5.88721e-07
4.43726e-07
7.22391e-07
-4.09776e-07
-1.68859e-07
-5.44702e-07
-6.06256e-07
2.79172e-07
6.02473e-07
3.28808e-07
1.02742e-07
5.71722e-08
1.82649e-07
2.80396e-08
-2.85004e-07
-5.36141e-07
-1.48532e-07
-3.87228e-07
-4.08266e-07
6.91533e-07
-5.85173e-07
6.97088e-07
-1.11915e-07
3.01776e-07
3.68603e-07
-9.69653e-08
-4.94272e-07
1.60546e-07
5.64474e-07
2.86157e-07
1.03936e-07
3.76512e-07
3.43839e-07
9.26502e-07
-7.25046e-07
2.91251e-07
2.28592e-07
5.14759e-07
1.97455e-07
1.75545e-07
-6.50551e-07
-1.18688e-07
-2.6462e-08
-1.09877e-07
-5.4606e-07
4.00179e-07
-5.10056e-07
5.84245e-07
-9.50978e-07
3.40846e-07
2.62488e-07
6.80857e-07
-5.04506e-07
-5.01798e-09
-5.35954e-07
-1.20037e-07
-7.41198e-07
-4.50499e-07
6.59701e-07
3.5665e-07
3.46215e-07
2.96277e-07
-2.94693e-08
-1.20665e-07
1.06511e-07
-1.72738e-07
9.07984e-08
-1.30057e-07
1.57022e-07
-1.50588e-07
7.23265e-07
-3.23085e-07
-6.78841e-07
6.23079e-07
-2.90458e-07
-5.68282e-07
6.77115e-07
-1.08833e-07
-6.72309e-07
4.54469e-07
6.95058e-07
-5.44714e-07
5.02638e-07
7.65987e-07
-2.63349e-07
3.64959e-07
1.02911e-06
6.04866e-07
-2.9588e-07
-1.1425e-07
4.10129e-07
-6.85e-07
-4.4516e-07
7.77564e-07
-3.32404e-07
1.06037e-07
1.81613e-07
7.17699e-07
-1.26937e-07
7.47612e-09
-1.81754e-07
-1.66932e-09
1.78551e-07
-5.1729e-07
-1.99362e-08
-3.91905e-08
-4.43376e-07
4.58656e-07
-4.59849e-07
-5.92492e-07
3.50107e-07
4.86443e-08
1.30503e-08
2.4006e-07
4.75353e-07
6.32277e-07
-5.28341e-07
2.54641e-07
-5.64006e-07
-5.43604e-07
8.84719e-07
-6.64751e-07
3.06584e-07
2.39053e-07
-1.76165e-07
5.40773e-07
-3.35383e-07
-3.24822e-07
-1.24711e-07
9.8619e-07
-6.39577e-07
2.88084e-07
-6.44433e-07
7.92144e-07
-3.69957e-08
-1.41028e-08
5.10985e-08
-9.88685e-08
4.5336e-09
9.43349e-08
1.70738e-07
2.41057e-07
5.42581e-07
-6.87163e-08
-5.99451e-07
5.79715e-07
1.45108e-07
2.80497e-07
5.33884e-07
4.72122e-07
-5.96833e-07
5.11543e-07
-4.9698e-07
-1.3651e-07
4.22666e-07
3.99996e-07
-5.15292e-07
2.9588e-07
4.19766e-08
3.06232e-07
-7.56732e-07
2.3015e-07
7.07495e-07
-7.19222e-07
3.1707e-07
6.56972e-07
3.43712e-07
-5.40135e-07
2.9738e-07
3.8358e-07
-2.23315e-07
7.7618e-07
-4.53557e-07
-4.64768e-08
-4.92504e-07
5.38981e-07
-3.57561e-07
-3.34395e-07
2.82837e-07
-6.95149e-07
4.65743e-07
-1.46621e-08
2.79443e-07
5.48582e-07
-8.28025e-07
7.84359e-07
-4.07847e-07
2.12665e-08
-1.27395e-07
2.92668e-07
-5.89779e-07
-1.67342e-07
5.15426e-07
-3.48084e-07
3.33846e-07
7.67297e-07
-8.66088e-07
-2.156e-07
2.156e-07
-1.31726e-07
5.79831e-07
-1.03096e-06
3.50609e-07
4.85996e-07
1.19032e-08
-2.77291e-09
-5.73315e-07
6.22401e-07
-4.90866e-08
-6.36929e-07
9.27688e-08
5.74619e-07
-8.06577e-08
-1.33391e-07
-5.80253e-07
5.80253e-07
2.19612e-07
4.31654e-07
-1.06816e-09
-1.14077e-07
-3.24998e-08
-6.05928e-08
-8.14401e-07
-7.70982e-07
-3.65623e-07
8.00135e-07
4.34952e-07
1.81219e-07
7.56438e-07
3.82706e-07
3.73732e-07
3.35292e-09
8.72136e-08
-9.05666e-08
4.1209e-07
3.4734e-07
-1.39088e-07
1.42441e-07
5.34656e-08
5.11138e-07
-2.16942e-08
-8.83167e-08
-6.61758e-07
-1.14986e-07
-2.39722e-07
2.49703e-07
2.07036e-07
8.61157e-07
-4.71634e-07
6.72569e-07
4.85348e-08
2.10573e-07
-1.07572e-07
4.62181e-07
-9.7217e-07
5.0999e-07
7.40021e-11
1.56948e-07
-5.15774e-08
1.42376e-07
1.44657e-07
1.34514e-07
-3.61069e-07
-2.78881e-07
1.5393e-07
3.85245e-07
3.25343e-07
6.00558e-07
-4.32808e-07
-1.39626e-09
6.01954e-07
-7.31378e-07
4.01601e-07
-1.0096e-08
2.86616e-07
2.85685e-07
-1.45356e-07
5.49386e-08
-1.01685e-07
6.29654e-08
2.09631e-07
4.87457e-07
-1.60496e-07
-2.0457e-07
-3.41472e-07
-1.7914e-07
-1.9468e-07
5.05593e-07
2.78765e-07
-1.20999e-07
-4.02762e-07
2.67699e-07
1.71059e-07
5.01537e-07
3.96817e-07
4.02678e-07
7.08118e-07
-1.27253e-07
4.28487e-07
-2.33561e-07
-3.45496e-07
1.37737e-07
2.07759e-07
-2.96569e-07
1.46787e-07
1.49782e-07
-2.53012e-07
9.34475e-08
-1.59642e-07
-1.65166e-07
9.6725e-08
-4.21065e-07
3.6087e-07
-4.48677e-07
-2.43194e-07
6.46971e-07
8.16404e-07
-4.73452e-07
-6.04595e-07
9.78495e-08
6.44302e-07
-2.09863e-07
-5.60511e-07
-1.61411e-08
-6.4185e-07
4.6065e-07
-5.69295e-07
-1.94861e-07
2.61664e-07
4.59066e-07
-4.68267e-07
-2.45918e-07
-1.84444e-07
-6.14744e-08
5.57262e-07
-3.16805e-07
7.84747e-08
-2.15416e-07
2.10818e-07
-1.94067e-07
2.3929e-07
-8.04205e-07
4.45419e-07
-7.98693e-09
3.54202e-07
-1.15608e-07
-2.48501e-07
3.64109e-07
1.639e-07
-3.82688e-07
1.91532e-07
-4.61412e-07
4.79508e-07
4.1811e-07
6.59818e-07
-3.9087e-07
-2.68948e-07
7.51409e-07
7.85255e-08
-2.32035e-07
-1.05918e-07
2.39722e-07
-1.27672e-07
-1.72994e-07
5.77492e-07
-9.42087e-08
-1.47025e-07
6.31965e-07
1.71065e-07
4.27719e-07
-4.65657e-07
-5.07789e-07
1.04237e-07
-5.00357e-07
2.3427e-07
-6.82948e-07
-8.02588e-07
3.33548e-07
4.69039e-07
-4.97988e-07
7.58705e-07
-7.91872e-07
6.97496e-07
6.1209e-08
3.4924e-07
3.46028e-08
-4.87058e-08
8.85024e-08
-8.39691e-08
-5.72211e-07
4.16439e-07
-7.01073e-07
5.30212e-07
-1.88038e-07
4.10129e-07
-1.80942e-07