/*--------------------------------*- C++ -*----------------------------------*\
  =========                 |
  \\      /  F ield         | OpenFOAM: The Open Source CFD Toolbox
   \\    /   O peration     | Website:  https://openfoam.org
    \\  /    A nd           | Version:  7
     \\/     M anipulation  |
\*---------------------------------------------------------------------------*/
FoamFile
{
    version     2.0;
    format      ascii;
    class       volVectorField;
    location    "0.1";
    object      U;
}
// * * * * * * * * * * * * * * * * * * * * * * * * * * * * * * * * * * * * * //

dimensions      [0 1 -1 0 0 0 0];

internalField   nonuniform List<vector> 
2016
(
(0.505859 0.000122103 9.40277e-19)
(0.513528 -0.000734333 2.85144e-17)
(0.663192 0.082638 0)
(0.603528 0.0760269 0)
(0.53553 -0.0340138 0)
(0.529844 0.21424 -1.33264e-18)
(0.62922 0.064429 -9.4036e-20)
(-0.228228 0.151871 0)
(0.469016 -0.0760412 2.08229e-17)
(0.458687 -0.100091 0)
(0.537712 -0.0970566 2.35802e-17)
(0.284854 0.19873 -1.41787e-18)
(0.284737 0.234333 0)
(0.191065 -0.0260818 0)
(0.450241 -0.0292523 0)
(0.165803 0.0199321 0)
(0.221511 -0.017515 0)
(0.341544 -0.0179034 9.45455e-18)
(0.00415003 -0.0929774 -2.04791e-21)
(0.0317295 0.139342 1.28167e-18)
(0.519721 -0.0117536 -2.60135e-17)
(0.0482823 0.22479 6.77105e-19)
(0.0045051 -0.182011 -1.81573e-19)
(0.451973 0.0140725 -2.5243e-18)
(0.629689 -0.0582497 -4.24988e-18)
(0.503379 0.1871 0)
(0.641299 -0.0557555 5.01303e-18)
(0.610732 0.0320133 -4.22264e-18)
(0.362264 0.222851 -1.28122e-17)
(0.42287 0.0778739 1.01365e-17)
(0.268043 0.0181202 -1.37418e-17)
(0.485559 -0.170775 -2.34404e-18)
(0.374667 0.117005 -8.85495e-18)
(0.476274 -0.0857832 9.17047e-18)
(0.442067 -0.159394 0)
(0.0453391 -0.0801086 0)
(0.114717 0.125942 0)
(0.500109 -0.00650481 -9.56766e-18)
(0.338005 -0.222044 -1.46994e-17)
(0.626544 0.036691 2.91607e-18)
(-0.0814022 -0.0831568 3.65285e-20)
(-0.0455514 0.119937 -2.40938e-18)
(0.542024 -0.0483823 0)
(0.430248 -0.0161369 -2.32242e-17)
(0.508207 -0.0186935 1.37587e-17)
(0.505875 -0.011292 0)
(0.206544 -0.227898 0)
(0.478557 0.149646 0)
(0.426292 0.0727776 -1.00296e-18)
(0.445659 -0.0251286 -5.74155e-18)
(0.57586 0.0994802 3.28112e-18)
(0.495406 0.0989707 -7.24135e-18)
(0.101638 -0.0066486 -3.33703e-19)
(0.17513 0.00769437 1.55711e-19)
(0.606491 0.155603 9.99123e-18)
(-0.318022 0.0977677 0)
(0.613117 0.0948163 6.26051e-19)
(0.0170172 0.217113 0)
(0.23148 -0.258033 0)
(0.277413 0.333997 0)
(0.634056 0.272954 0)
(0.417932 0.064411 -4.80398e-18)
(0.157946 -0.119036 8.16139e-18)
(-0.0886311 0.0126215 7.25757e-18)
(0.435768 -0.0499824 -2.16669e-17)
(0.409619 -0.0145713 -1.0736e-17)
(0.126407 0.133766 0)
(0.549792 0.0890598 -1.33482e-17)
(0.482578 0.0327619 0)
(-0.161306 -0.0954508 0)
(-0.155392 0.142115 -1.05196e-19)
(0.40903 0.0246321 7.50782e-19)
(-0.185295 -0.0899378 -1.95239e-19)
(-0.154896 0.137755 1.75258e-19)
(0.58339 0.167794 1.8748e-18)
(0.411328 0.000389453 8.42024e-19)
(0.428715 -0.00447346 0)
(0.457106 -0.0100676 0)
(0.489054 -0.0222022 -2.78585e-17)
(0.437418 0.0412312 -1.08702e-17)
(0.625971 0.0930831 1.25862e-17)
(0.857659 0.111286 -1.01915e-18)
(0.532133 -0.175637 -3.54027e-18)
(0.548495 0.0276253 -7.73035e-18)
(0.55241 0.113943 3.8227e-18)
(0.925506 -0.0543609 9.53396e-18)
(-0.1002 0.135578 -2.721e-18)
(0.666096 0.0665306 -6.38977e-19)
(0.191646 0.184139 0)
(0.498217 -0.0881788 -1.69446e-18)
(0.504357 -0.0096595 1.42792e-17)
(-0.0876267 -0.0925198 8.5195e-20)
(-0.0476545 0.128191 2.35548e-18)
(0.455524 -0.00663905 3.00985e-17)
(0.449452 -0.0756622 -2.43662e-17)
(0.893117 -0.0310889 -1.04332e-17)
(0.225577 0.238777 0)
(0.341216 0.0880533 0)
(0.422441 -0.0722322 9.33636e-18)
(0.196219 0.24941 -2.7266e-20)
(0.210401 0.232448 2.46963e-20)
(0.630628 0.0933469 0)
(0.436303 0.0626576 1.42123e-17)
(0.364243 0.0191723 3.16833e-17)
(0.0661835 -0.0576139 0)
(0.129715 0.0825523 0)
(0.405703 -0.00278053 -2.28528e-17)
(0.610496 0.156858 8.70547e-18)
(0.74427 0.00131688 -7.09336e-18)
(0.0473929 0.16254 -1.3555e-18)
(0.00606732 -0.123481 2.16587e-21)
(0.457771 -0.0532451 -4.30888e-17)
(0.453303 -0.0338308 2.82213e-17)
(0.778765 -0.00507068 0)
(0.517737 -0.0165719 3.90109e-18)
(0.440027 -0.0429998 2.49158e-17)
(0.50552 0.0383033 -6.22444e-18)
(0.491427 0.0185332 2.9107e-17)
(0.50711 -0.162431 1.77562e-18)
(-0.130563 -0.0434632 7.99217e-18)
(0.528484 -0.0327693 -2.81587e-17)
(0.531962 0.0468159 -3.19044e-17)
(0.135479 0.0534435 0)
(0.518959 0.171418 -2.31955e-17)
(0.360413 -0.0144901 0)
(0.403018 0.143923 -2.6876e-17)
(0.240971 -0.0328626 0)
(0.264381 -0.0603339 -1.25258e-17)
(0.604908 -0.00701173 0)
(0.4612 0.080428 0)
(0.44824 0.0148853 1.21643e-17)
(0.595995 0.208288 0)
(0.631068 -0.126875 -1.87022e-18)
(0.479435 0.116113 1.00289e-18)
(0.323535 -0.161563 1.00682e-17)
(0.187043 0.119834 3.29178e-19)
(0.546438 -0.126714 -1.4731e-18)
(0.665078 0.134515 0)
(0.693215 0.0380189 0)
(0.806842 0.132953 5.54388e-18)
(0.0917447 -0.223344 0)
(0.123236 0.259849 -1.29492e-19)
(0.417179 -0.0456017 2.3334e-17)
(0.495566 0.0412392 -2.98552e-17)
(0.50115 -0.0102798 -1.42742e-17)
(0.459036 0.0322603 -7.16934e-18)
(0.500465 0.214803 4.44793e-18)
(0.470895 -0.11656 2.68391e-18)
(0.798049 0.0402848 3.92239e-18)
(0.46017 0.0267928 8.19319e-18)
(0.436069 -0.120008 1.39719e-17)
(0.434132 -0.129673 0)
(-0.0320662 0.109438 -7.39508e-18)
(0.612086 0.0889567 -8.92629e-18)
(0.424949 0.0686 0)
(0.444817 0.0292429 -1.33717e-17)
(0.382569 -0.00968571 -2.61678e-17)
(0.852645 0.0810582 5.48574e-18)
(0.509776 -0.0246188 2.6011e-17)
(0.487049 -0.0462214 9.50746e-19)
(0.039947 0.151935 0)
(0.0125639 -0.11088 0)
(0.280781 -0.0242927 -2.31366e-17)
(0.555499 0.025952 -1.41342e-17)
(0.416107 -0.0700115 1.41182e-17)
(0.403923 -0.060712 -2.94899e-17)
(0.25478 0.0622644 2.05375e-19)
(0.19222 -0.0718278 -3.70208e-19)
(0.730637 0.127694 -1.494e-18)
(0.63139 0.130805 4.76069e-18)
(0.570404 -0.0911561 0)
(0.499013 -0.134929 -9.63906e-19)
(0.688172 0.0576115 2.85363e-18)
(0.56719 0.0116616 -7.09934e-19)
(-0.265828 -0.214148 1.86352e-18)
(0.340798 -0.171767 1.31461e-18)
(0.340775 -0.132234 3.21523e-18)
(0.640553 0.0529282 3.74018e-18)
(0.35396 -0.00496396 0)
(0.284142 0.356712 0)
(-0.097295 0.158761 -3.73113e-19)
(-0.125954 -0.105245 -2.44438e-18)
(0.479982 0.0101566 -4.36723e-17)
(0.500382 0.0115386 0)
(0.114016 0.119373 2.21489e-18)
(0.45131 0.0350654 0)
(0.489043 -0.0367601 1.7633e-17)
(0.597289 0.123331 2.44315e-18)
(0.248704 0.053166 1.76561e-19)
(0.175814 -0.0382783 -3.70709e-19)
(0.570428 -0.00516545 -4.54253e-18)
(0.4492 0.0331477 -2.08421e-17)
(0.476788 -0.00362336 0)
(-0.061934 0.104991 -3.22092e-18)
(-0.0889931 -0.0603688 4.67043e-19)
(-0.0866031 0.151208 0)
(-0.125838 -0.104644 1.676e-18)
(0.480423 0.0197646 0)
(0.457475 -0.032484 -2.41508e-17)
(0.457375 -0.0157653 0)
(0.497558 -0.0323442 2.34509e-17)
(0.0180016 -0.178143 -4.86606e-18)
(0.466141 -0.0658047 1.7094e-17)
(0.51616 -0.0059277 1.56648e-17)
(0.558256 -0.0703209 3.39713e-18)
(0.381346 -0.0218466 0)
(0.501142 -0.0630669 -2.06807e-17)
(0.677391 0.0676578 -3.26205e-18)
(0.412214 -0.00905112 2.9111e-17)
(0.425906 -0.00309563 -3.15419e-17)
(0.374554 0.0476313 3.03744e-17)
(0.466148 0.0267133 1.16929e-17)
(0.115711 0.182766 -1.10182e-18)
(0.0872206 0.253535 2.99877e-19)
(0.497268 -0.0634951 0)
(0.0741566 0.213444 -2.25628e-18)
(0.0346565 -0.175656 8.05606e-19)
(0.607763 0.189993 -4.65155e-18)
(0.481488 -0.07828 0)
(0.467809 0.0540002 -1.82323e-17)
(0.411277 -0.00333653 2.10014e-17)
(0.460737 -0.120672 -1.15168e-18)
(0.375167 0.000885939 1.17158e-17)
(0.527065 0.0266548 0)
(0.480682 0.00149456 0)
(0.487004 0.0370231 -3.92663e-18)
(0.693793 0.0788068 -1.9858e-18)
(0.0877902 -0.215167 -3.29162e-20)
(0.113095 0.251546 0)
(0.476483 -0.0719838 6.86177e-18)
(0.813756 -0.0174489 1.62862e-17)
(0.554694 -0.016603 6.98884e-18)
(0.518139 0.0460723 -1.57009e-17)
(0.543581 0.0280659 7.2346e-18)
(0.422387 0.0261277 1.11522e-17)
(0.511004 -0.0165031 -1.02136e-17)
(0.316157 -0.167373 -1.3315e-18)
(0.402599 -0.189678 -1.03207e-18)
(0.3917 0.266701 9.93383e-19)
(0.453537 0.258446 0)
(0.767896 0.102973 0)
(0.127756 -0.181609 1.49267e-18)
(0.161864 0.203823 -3.00303e-19)
(0.312491 -0.0500657 -1.12858e-17)
(0.571397 0.149238 0)
(0.466892 0.212327 0)
(0.445214 0.0857675 -7.93994e-19)
(0.356755 -0.11491 -2.72576e-17)
(0.313872 0.311897 0)
(0.267737 -0.236524 0)
(0.321211 -0.132102 -4.91653e-18)
(0.64104 -0.180026 0)
(0.349749 0.00329006 -1.90879e-17)
(0.419256 0.0080794 0)
(0.0654266 0.235746 0)
(0.0231998 -0.199133 3.39276e-20)
(0.514673 -0.0308745 9.80012e-18)
(0.0939373 0.0159019 2.66808e-19)
(0.155852 0.0010881 -7.11484e-20)
(0.451303 -0.100504 9.19644e-18)
(0.496613 -0.0466801 -1.14138e-17)
(0.719518 0.045313 0)
(0.515391 -0.173605 0)
(0.528806 0.00222659 1.83418e-19)
(0.473219 -0.00266558 0)
(0.750133 0.107881 0)
(0.520098 -0.0393603 1.44125e-17)
(0.395229 -0.0417637 -2.30775e-17)
(0.452229 -0.00574587 1.46173e-17)
(0.466423 -0.0179208 1.38217e-17)
(0.631135 0.0439152 -2.74808e-19)
(0.400011 -0.045633 1.2451e-17)
(0.521733 -0.0377182 -2.6157e-17)
(0.519345 0.168428 -1.21988e-18)
(0.484148 -0.118767 -2.22524e-18)
(0.663959 0.0297017 3.34871e-18)
(-0.138878 -0.226226 -1.26195e-18)
(0.490011 0.0925212 1.02079e-17)
(0.843596 -0.0981311 -7.12445e-18)
(-0.150787 0.0318792 8.15748e-19)
(0.481552 0.00168071 0)
(0.482152 -0.00381558 0)
(0.364073 0.0162679 -2.5974e-18)
(0.609803 -0.00111744 -7.94365e-18)
(0.378473 -0.0148608 -1.11248e-17)
(0.216835 0.266876 0)
(0.681485 0.148168 0)
(0.698258 -0.00232681 0)
(0.349232 -0.00762987 0)
(0.47612 0.00237449 0)
(0.39428 0.00103017 1.51396e-17)
(-0.332781 -0.164729 2.91125e-18)
(0.501555 0.0439296 -3.11875e-17)
(0.462055 0.0235154 2.92375e-17)
(0.51077 -0.0249535 -2.9477e-17)
(0.609825 -0.0589124 4.38743e-18)
(0.257015 0.0671182 1.97995e-17)
(0.218759 -0.236543 3.73254e-19)
(0.192408 -0.223222 3.64616e-18)
(0.410474 -0.133143 9.78289e-18)
(0.491607 -0.0224961 -2.86419e-17)
(0.155587 -0.233199 6.18843e-18)
(0.49785 0.0601036 -6.10541e-18)
(0.791757 -0.0450928 0)
(0.480383 -0.00267 -2.45246e-17)
(0.469797 -0.00854694 -1.28625e-17)
(0.492638 -0.0151263 -6.37877e-18)
(0.512808 -0.0144051 6.91616e-18)
(0.541566 0.0198757 1.87694e-18)
(0.560236 -0.106292 3.18185e-19)
(-0.0160053 0.268685 -5.98049e-18)
(0.469298 0.00145136 0)
(0.465324 -0.083108 1.56949e-17)
(0.354572 0.0382129 -1.10974e-17)
(0.20057 0.0585146 -4.19802e-20)
(0.156248 -0.0370847 2.92684e-19)
(0.441524 -0.0241836 2.52835e-17)
(0.542176 -0.135545 -1.29971e-17)
(0.533347 -0.193524 -8.47625e-18)
(0.652217 0.161494 8.96082e-19)
(0.709688 -0.0985686 1.883e-18)
(0.468087 -0.00403811 -8.70265e-18)
(0.648017 0.0990407 3.46341e-19)
(0.325615 -0.163761 0)
(0.447366 -0.0344186 1.31829e-17)
(-0.0318939 0.116528 2.69324e-18)
(-0.058306 -0.0687621 -5.71344e-19)
(0.377037 -0.223144 2.28884e-18)
(0.416224 -0.0442497 1.38739e-17)
(0.453438 -0.13601 0)
(0.397351 -0.0175803 -1.53605e-17)
(0.437411 0.00960545 2.9288e-17)
(0.51804 0.0159101 -2.659e-17)
(0.65978 -0.0611816 0)
(0.379372 0.140557 -8.81608e-18)
(0.370926 0.111626 -1.05811e-17)
(0.45051 -0.0262913 -7.37214e-18)
(0.499563 -0.0191352 -1.39453e-17)
(0.52529 0.230584 9.87606e-19)
(0.496859 -0.0578939 2.77598e-17)
(0.293027 -0.0416049 -4.40132e-18)
(0.505462 0.0440249 9.97337e-19)
(0.254576 -0.0234394 2.61224e-17)
(0.499521 0.030115 0)
(0.48846 0.0526924 -7.94786e-19)
(0.49861 0.0253231 -1.35168e-17)
(0.569152 0.0228605 0)
(0.481429 -0.0190175 -8.40394e-18)
(0.368345 -0.08708 0)
(0.427029 -0.231511 2.06973e-18)
(0.508903 -0.00611784 1.38401e-17)
(-0.182177 -0.0831889 9.22625e-19)
(-0.134744 0.142649 4.97791e-19)
(0.451619 0.092536 -3.28272e-17)
(0.514841 -0.024904 0)
(0.518918 0.00142268 2.11629e-17)
(0.518446 -0.0526326 1.13474e-17)
(0.502743 -0.0468568 1.69463e-17)
(0.495766 -0.125526 -1.3964e-19)
(0.53813 -0.0138469 -8.07572e-18)
(-0.0619549 -0.140372 0)
(-0.0124835 0.194039 -6.68724e-19)
(0.345477 -0.142465 -2.19557e-17)
(0.814123 0.0692772 5.54251e-18)
(0.530179 0.0200045 1.20416e-17)
(-0.0674034 -0.070002 -7.96521e-20)
(-0.0230886 0.104821 5.65042e-19)
(0.758553 -0.0123101 -1.11473e-18)
(0.49293 -0.00780802 1.50106e-17)
(0.715928 0.0406942 7.95293e-18)
(0.28537 -0.205579 0)
(0.326858 0.298057 -8.09733e-20)
(0.197127 -0.231302 0)
(0.240183 0.298594 0)
(0.228517 0.310884 0)
(0.507454 0.179317 -2.06692e-17)
(0.400251 0.077477 8.70496e-18)
(0.458043 0.0397089 3.14449e-17)
(0.438405 -0.00708084 0)
(0.539177 0.130577 -9.14349e-18)
(0.32151 0.0321343 4.66581e-18)
(0.571402 -0.00525803 -9.55505e-19)
(0.427026 0.010224 7.18752e-18)
(0.513856 0.00789233 0)
(0.509018 0.135736 0)
(0.392788 0.0150077 0)
(0.545738 -0.0509616 1.36568e-17)
(0.482232 0.0173382 -1.35158e-17)
(0.570333 -0.00556313 -2.43776e-17)
(0.584576 0.0244876 0)
(0.491231 0.0417062 -2.23844e-17)
(0.375146 -0.0274573 -9.29299e-19)
(0.539645 0.129067 2.52756e-18)
(0.31226 0.0744094 0)
(0.464759 -0.0167587 0)
(-0.0777303 0.224557 -4.88235e-19)
(-0.116558 -0.159698 -6.62415e-19)
(0.40185 -0.0464531 6.25437e-19)
(0.409691 0.132629 3.44789e-17)
(0.461724 -0.113397 0)
(0.538003 0.100087 -3.08469e-18)
(0.471673 -0.00310158 -2.16576e-17)
(0.59516 0.00845232 -8.47992e-19)
(0.727998 -0.0775686 1.99122e-19)
(-0.107993 0.0940907 1.34743e-19)
(0.468277 0.016593 0)
(0.292885 -0.0733247 -3.25754e-17)
(0.528904 0.00531626 -4.6482e-18)
(0.444779 0.0232699 7.2304e-18)
(0.364499 -0.0292394 -1.52056e-17)
(0.428965 -0.0557924 -1.97466e-17)
(0.379672 0.0239356 -8.64067e-18)
(0.464832 -0.033802 0)
(0.313785 -0.0323228 1.40538e-17)
(0.687305 0.118039 1.23732e-17)
(-0.0348129 -0.19252 -7.23347e-20)
(0.0188788 0.240691 -5.91653e-19)
(0.607305 0.0773976 9.34346e-18)
(-0.22159 0.342407 0)
(0.614433 0.0180067 3.03518e-18)
(0.567022 0.00647865 1.6988e-17)
(0.493599 -0.026313 0)
(0.518612 -0.0244705 -1.52894e-17)
(0.487509 0.133741 -9.63327e-18)
(0.472182 -0.0809575 1.90533e-18)
(0.420546 0.0183992 2.63367e-17)
(0.330689 -0.109304 1.44132e-17)
(0.504 -0.0105532 -1.52122e-17)
(0.518685 0.0073595 0)
(0.508093 0.0915278 2.84777e-17)
(0.239614 0.192974 1.9115e-18)
(-0.226101 0.0957704 -9.18563e-19)
(0.49661 0.0131529 -8.39008e-19)
(0.675975 0.0682723 1.33987e-19)
(0.426521 0.0694173 -8.78083e-18)
(0.65743 -0.0307893 -5.65642e-18)
(0.754545 0.00737455 -1.59327e-17)
(0.48232 0.0374817 0)
(0.475466 0.0130869 -8.07499e-18)
(0.659829 -0.0253164 1.382e-18)
(0.738125 0.0863883 -5.2053e-18)
(0.50039 0.0181893 1.59542e-17)
(-0.0196381 -0.101407 0)
(0.000772188 0.139579 0)
(0.636553 0.142425 4.65583e-18)
(-0.182696 -0.0326969 -1.41039e-18)
(0.143551 0.153918 -5.09996e-18)
(0.446746 0.0845729 1.14376e-17)
(0.603783 -0.137436 1.14741e-17)
(-0.013821 -0.0808356 5.5311e-19)
(0.0403224 0.116541 -1.24048e-18)
(0.705147 0.111453 -9.26599e-18)
(0.497319 0.0695025 1.38392e-17)
(0.482335 -0.0468961 -1.75408e-18)
(0.608108 -0.0586711 1.03635e-17)
(0.647165 -0.0403023 0)
(0.771742 0.107477 0)
(0.625223 -0.140857 1.71828e-17)
(0.458903 0.10641 9.95024e-18)
(0.563695 0.135279 -6.59354e-18)
(0.590176 0.0332454 1.06114e-17)
(-0.0856648 -0.0741012 -6.02166e-19)
(0.0786414 0.0340808 0)
(0.1482 -0.0236499 0)
(0.508059 -0.00635831 2.1209e-21)
(0.467412 0.0802727 6.41065e-18)
(0.225886 0.0794835 0)
(0.175763 -0.0534663 -4.84637e-19)
(0.457495 -0.0674594 3.54641e-18)
(0.458432 0.0395884 -6.85263e-18)
(0.455562 0.0508449 2.35423e-17)
(0.409818 0.192483 0)
(0.574662 -0.0422496 -3.06482e-17)
(0.431696 -0.0875216 0)
(0.622126 -0.0150684 -1.14381e-19)
(0.483951 -0.0150186 -1.19069e-17)
(0.533524 -0.0287587 0)
(0.497768 0.00672755 0)
(0.485533 0.0389651 0)
(-0.00201862 0.19748 1.90826e-19)
(-0.053168 -0.147315 -2.61837e-20)
(0.554042 0.027302 4.86243e-19)
(0.526517 0.0553868 -1.55348e-17)
(0.491412 -0.0287889 -8.45637e-18)
(-0.0381738 -0.0608558 5.87092e-19)
(0.466675 -0.0291727 3.70174e-18)
(0.486125 0.0359694 -2.54949e-17)
(0.446008 0.00115932 0)
(0.47295 -0.0257052 1.40202e-17)
(0.498041 -0.0129416 2.39042e-17)
(0.488653 -0.00993544 0)
(0.486644 0.0109356 -7.74598e-18)
(0.327971 -0.0181358 -1.53714e-17)
(0.473298 -0.00570764 -3.01599e-17)
(0.484994 -0.0141859 0)
(0.467987 0.0266993 -1.62213e-17)
(0.817124 0.0319237 0)
(0.320057 0.287543 2.09268e-19)
(0.297284 0.281849 -2.98822e-20)
(0.54675 0.0120966 1.32854e-17)
(0.460613 -0.168341 0)
(0.377728 -0.111634 -7.01432e-18)
(0.601633 -0.0151059 0)
(0.359137 -0.143523 2.201e-17)
(0.611515 0.00702088 -1.05105e-17)
(0.411575 0.00196158 -7.53998e-18)
(0.502599 -0.046096 0)
(0.871865 -0.0369311 -3.435e-18)
(0.654015 -0.00236057 0)
(0.502063 -0.0657875 1.19588e-17)
(0.807304 0.0262623 -4.46709e-18)
(0.581125 -0.0410071 1.48933e-18)
(0.461432 -0.0459738 4.01742e-17)
(0.396308 0.00789957 0)
(0.156363 -0.109351 4.2814e-19)
(0.203853 0.150581 6.19286e-19)
(0.202656 0.111412 0)
(0.443364 -0.193778 0)
(0.228343 0.262823 0)
(0.493273 -0.0167139 -1.42381e-17)
(0.510399 -0.0251105 0)
(0.585497 -0.0423611 1.49223e-17)
(0.608809 0.16263 -4.22869e-18)
(0.348438 -0.0478552 3.952e-18)
(0.513323 -0.00466791 1.74857e-18)
(0.200071 0.0520837 -8.88836e-20)
(0.137357 -0.0400031 7.7925e-19)
(0.182632 -0.0580561 0)
(0.542337 0.0130157 -2.53351e-17)
(0.531569 0.211137 -1.57514e-18)
(0.207151 -0.225908 -2.07413e-18)
(0.422023 -0.262836 1.32767e-18)
(0.164483 -0.23793 1.61896e-18)
(0.303819 -0.208448 0)
(0.372087 -0.157122 0)
(0.312723 -0.196859 -8.35798e-18)
(0.458915 0.288798 0)
(0.793744 0.0344937 0)
(0.394444 0.133669 2.69339e-17)
(0.484008 -0.0126224 0)
(0.515976 -0.0282503 2.78931e-17)
(0.470331 -0.103427 1.12733e-17)
(0.454003 0.0546556 0)
(0.502935 -0.0094571 0)
(0.554027 0.0108227 -2.02847e-17)
(0.431898 0.0988414 0)
(0.364502 -0.20102 1.87538e-18)
(0.401978 -0.0217841 5.99868e-18)
(0.508825 -0.00476104 0)
(0.529 -0.023407 -1.68022e-17)
(0.539286 -0.018431 -2.01307e-17)
(0.0934712 0.0314717 7.11977e-19)
(0.0495912 -0.00693924 6.60996e-20)
(0.568137 -0.0185046 1.57293e-17)
(0.303026 -0.0969491 -1.59259e-18)
(0.386323 0.303878 1.81146e-17)
(0.384664 0.298591 -9.47047e-18)
(0.375552 0.180214 0)
(0.39919 0.191712 7.36e-19)
(0.819992 0.0831035 -2.23347e-18)
(0.51069 -0.0176795 -1.41406e-17)
(0.690306 -0.00581653 -4.7573e-18)
(0.627596 -0.0552829 0)
(0.45733 0.00484642 5.88704e-18)
(0.431202 -0.155934 -1.73179e-18)
(0.223006 0.281864 1.53497e-19)
(0.625261 -0.000454374 0)
(0.568389 -0.108687 8.43911e-19)
(0.453039 0.209119 -5.76258e-19)
(0.546802 0.154846 1.683e-17)
(0.0604629 -0.0472548 0)
(0.10808 0.0762529 -2.48712e-19)
(-0.0709681 -0.150718 -7.52067e-19)
(-0.037964 0.202248 3.09609e-19)
(0.224096 0.0113463 -5.40151e-18)
(0.661367 0.107129 0)
(0.499159 -0.00223102 0)
(0.512581 -0.01272 -1.64645e-17)
(0.505809 -0.0135151 2.79181e-17)
(0.298905 0.222718 1.4081e-18)
(0.491883 -0.0045415 2.25612e-17)
(0.842923 -0.00809133 0)
(0.880705 -0.0156411 9.00546e-18)
(0.958543 -0.026601 -1.97997e-18)
(0.15947 -0.0273603 7.90233e-18)
(0.638042 -0.0329094 7.31552e-18)
(0.368059 0.165904 0)
(0.542226 -0.0165823 4.58227e-17)
(0.49038 0.0230308 0)
(0.651846 -0.0454311 -4.07493e-18)
(0.772442 0.0175338 3.62828e-18)
(0.74321 -0.0589362 1.49668e-18)
(0.194701 -0.120038 -6.28189e-18)
(0.690597 -0.0647933 -2.34373e-18)
(0.500879 -0.0967289 -2.6919e-17)
(0.498313 0.0436313 -1.90183e-18)
(0.13409 0.0619269 6.55002e-19)
(0.08242 -0.0398265 1.06863e-19)
(0.675562 -0.0254141 -5.14712e-18)
(0.490092 0.00848831 -2.15362e-17)
(0.39419 0.292671 0)
(0.344617 -0.216749 8.49929e-19)
(0.486446 0.0344805 2.81157e-17)
(0.263069 0.0462998 9.99153e-18)
(0.489102 0.000758064 1.40473e-17)
(0.514458 -0.00346212 -1.63151e-17)
(0.859457 -0.012954 1.25814e-18)
(0.46375 -0.178157 -6.89731e-18)
(0.488922 0.00899504 1.4874e-17)
(0.501358 0.0136992 7.11331e-19)
(0.4872 -0.0123675 0)
(0.436667 0.00792357 9.78103e-18)
(0.433128 0.037308 0)
(0.501335 0.0563204 0)
(0.457743 0.014194 -3.75755e-18)
(0.47289 -0.0379511 0)
(0.402012 -0.123797 8.79393e-18)
(0.00974802 0.175089 8.32534e-19)
(-0.0408367 -0.130683 2.81603e-20)
(0.664438 0.0638111 1.77816e-18)
(0.543625 -0.0502545 -2.96216e-17)
(0.58999 -0.0337187 -1.28221e-17)
(0.650578 0.0369573 -2.48481e-17)
(0.0661126 -0.198656 -4.09638e-19)
(-0.121892 -0.146839 -3.70661e-18)
(-0.0185086 0.0909648 -9.04256e-18)
(0.569159 0.0655471 0)
(0.480018 -0.0085291 0)
(0.621865 -0.021455 -1.1698e-17)
(0.744946 0.160063 1.47249e-18)
(0.482169 0.0356078 -1.78494e-18)
(0.382056 0.21103 1.44025e-19)
(0.371045 0.130367 1.12148e-18)
(0.232258 0.298123 -3.08503e-19)
(0.729951 -0.104595 1.50543e-19)
(0.291572 -0.103303 0)
(0.251516 -0.137794 0)
(0.786908 0.00207461 3.1234e-20)
(0.960706 -0.0671192 -9.76091e-18)
(0.525201 0.225255 -1.33421e-19)
(0.574936 0.114339 9.98722e-19)
(0.488946 0.0796305 8.33349e-19)
(0.265429 0.0709074 -1.09201e-17)
(0.341678 0.0131612 -2.13144e-17)
(0.483998 -0.191638 0)
(0.497845 -0.0249797 3.80511e-18)
(0.487851 0.0401165 -1.39927e-17)
(0.437154 0.0329697 1.73409e-17)
(0.491509 0.0896701 -1.1699e-17)
(-0.151034 0.262654 -2.19576e-18)
(-0.0462501 0.35097 1.75717e-17)
(0.568158 -0.0179498 -4.47777e-17)
(0.512622 -0.0394618 -1.43699e-17)
(0.76277 -0.0523839 5.19761e-20)
(0.511554 0.0264327 0)
(-0.0785091 0.117633 3.50378e-20)
(-0.104514 -0.0715911 0)
(0.116729 -0.0129713 0)
(0.0535326 0.0280279 0)
(0.562054 -0.135324 0)
(0.614567 0.0827195 0)
(0.363686 -0.0485733 1.31513e-17)
(0.379613 -0.052521 -2.62251e-17)
(0.495552 0.00810903 0)
(0.503156 -0.00504184 -1.60288e-17)
(0.00453017 -0.191412 0)
(0.0646467 0.241514 -8.51023e-19)
(0.446527 -0.268869 3.45132e-20)
(0.445214 0.00496331 1.42315e-17)
(0.807067 -0.00179482 -8.56331e-18)
(-0.0260368 -0.132729 4.43882e-19)
(0.0371927 0.178041 -2.2393e-18)
(0.684043 -0.0571676 0)
(-0.0282687 -0.0860345 -1.29804e-18)
(0.0295464 0.122859 2.58622e-18)
(0.488532 -0.0536069 0)
(0.493198 -0.00755516 0)
(0.489537 -0.0256 -3.6711e-18)
(0.382529 -0.175284 0)
(0.454453 -0.285054 0)
(0.616167 0.175758 5.65604e-18)
(0.560426 0.0361236 1.52471e-17)
(0.440835 -0.00403052 1.5262e-17)
(0.39837 -0.0350981 3.82214e-18)
(0.419383 -0.034857 2.9429e-17)
(0.377179 -0.0264675 0)
(0.439795 -0.00162616 0)
(-0.0808415 -0.188779 0)
(-0.00405985 0.240389 8.32085e-19)
(0.499308 0.0245377 1.4077e-17)
(0.500062 0.0146306 -2.7209e-17)
(-0.18099 0.0970682 -7.45371e-20)
(0.598248 0.118668 -2.18544e-18)
(-0.176282 -0.0553529 -4.99061e-19)
(0.583832 0.00673424 -1.24765e-17)
(0.769721 -0.040955 0)
(0.441869 -0.0316584 -2.37538e-17)
(0.406441 0.188043 7.13301e-19)
(0.5147 0.0732168 -2.95007e-17)
(0.158473 0.0337305 6.1985e-18)
(0.729181 0.0293523 0)
(0.492604 0.0428027 5.86512e-17)
(0.502591 -0.00340278 -7.37272e-18)
(-0.0205728 0.255945 3.02796e-19)
(0.601186 -0.043086 1.15569e-17)
(0.451481 -0.051662 -2.64793e-17)
(0.658442 0.0297523 -2.72168e-18)
(0.386587 -0.0233106 1.51946e-17)
(0.691737 0.052758 6.99776e-18)
(0.498787 -0.0115268 1.60749e-17)
(0.143437 0.0326406 2.02411e-19)
(0.08978 -0.0107844 9.53363e-20)
(0.543261 -0.135279 6.01355e-18)
(0.50605 0.198388 1.11162e-18)
(0.701579 -0.0898214 5.6525e-18)
(0.703777 0.14542 -2.87713e-18)
(-0.0481338 -0.208039 0)
(0.424792 0.0310408 1.53148e-17)
(0.599641 -0.182326 1.39372e-17)
(-0.0582423 -0.153132 1.42924e-18)
(-0.0578617 -0.0816923 0)
(-0.0271855 0.130389 3.59562e-19)
(0.597018 0.100886 0)
(0.548255 0.0581173 1.02556e-17)
(0.528586 0.0196128 0)
(0.561677 0.0307206 3.87226e-18)
(0.425067 0.0603442 -7.77276e-19)
(0.611011 -0.0221913 -1.24599e-17)
(0.488508 -0.0429909 -8.32305e-18)
(-0.109742 0.16581 8.58533e-20)
(0.483742 0.0270781 0)
(0.530114 0.0299696 -5.73413e-18)
(0.889121 -0.0972904 3.9813e-18)
(0.193297 0.0614803 1.42787e-19)
(0.13667 -0.0497626 -8.01993e-19)
(0.441345 -0.00104692 0)
(0.873341 0.0174464 1.05671e-17)
(-0.137712 -0.137799 7.55471e-19)
(0.383266 0.0224646 1.33302e-17)
(-0.0779945 0.218701 4.36184e-19)
(0.622612 0.0704469 0)
(0.580016 -0.111036 -2.3546e-17)
(0.346021 0.0434993 2.18469e-17)
(0.684817 0.0530458 7.64712e-18)
(0.796954 -0.189226 0)
(0.279396 0.256519 3.33625e-19)
(0.112927 -0.0987683 0)
(0.153382 0.147753 0)
(0.528754 0.0190217 2.4744e-18)
(0.479324 -0.029175 -3.49508e-18)
(0.468444 -0.0099606 1.48778e-17)
(0.455276 -0.1494 9.87915e-21)
(0.739047 0.0637433 -1.03633e-17)
(0.663013 0.108047 4.79924e-18)
(-0.0442989 0.0226105 3.69827e-18)
(-0.0179875 0.0363113 0)
(0.46281 0.00715444 -1.46657e-17)
(0.665925 -0.0260794 -3.18566e-18)
(0.557399 -0.00368285 0)
(0.507771 -0.146731 -3.72911e-18)
(0.353236 -0.1766 -3.95651e-18)
(0.503555 -0.186847 2.69501e-18)
(-0.0445951 -0.091059 0)
(-0.00865522 0.13132 -3.90816e-19)
(0.564759 0.0186861 -2.19623e-18)
(0.507009 0.0342143 -4.83577e-18)
(0.144414 0.0175803 8.7801e-20)
(0.0869859 0.00193484 -3.30722e-19)
(0.834944 -0.05678 0)
(0.579478 0.0205779 0)
(0.570695 0.0126368 -5.98152e-18)
(0.459638 -0.0102132 2.96248e-17)
(-0.111568 -0.114221 1.88433e-18)
(-0.0470075 0.180911 1.39173e-18)
(0.435745 -0.145568 9.30887e-18)
(0.584636 0.158386 2.78244e-17)
(0.523906 0.0820617 -2.72767e-17)
(0.604078 0.00643075 0)
(0.851654 -0.0159181 0)
(0.474432 0.0347005 -2.04443e-18)
(0.394415 -0.0178057 -1.20394e-17)
(0.232334 -0.0535521 -1.76493e-18)
(0.484001 -0.000453529 0)
(0.44537 -0.0147493 -2.29757e-17)
(0.504606 0.0022786 -1.36234e-17)
(0.7 -0.0625777 0)
(0.466136 -0.0419119 2.56503e-17)
(0.552741 -0.0881418 0)
(0.618954 -0.152826 0)
(0.389122 -0.278039 1.15451e-18)
(0.58833 -0.139935 -1.9918e-17)
(0.548629 -0.124124 0)
(0.595142 0.0915359 -8.3087e-19)
(0.579016 0.00950436 -7.86697e-18)
(0.512126 -0.159587 8.45806e-18)
(0.503532 -0.0224398 0)
(0.100711 -0.242295 1.37363e-20)
(0.12188 0.27575 -4.86589e-20)
(0.514258 0.0336697 -8.53103e-19)
(0.625618 0.0561533 0)
(0.387747 -0.0358017 3.84804e-17)
(0.42038 0.0125013 8.39647e-18)
(0.376807 -0.198384 -1.35603e-19)
(-0.180194 -0.0462524 8.48325e-19)
(0.659304 -0.0470464 0)
(0.490861 0.00705388 -2.82719e-17)
(0.397917 0.0061438 -1.38931e-17)
(0.695877 0.0742105 4.28997e-18)
(0.54715 -0.0161271 -8.26561e-20)
(-0.0298655 0.14686 -1.07116e-18)
(-0.0903897 -0.0986425 3.84229e-19)
(0.549203 0.235512 6.50679e-19)
(0.578979 -0.0394938 0)
(0.558545 -0.00536104 -1.59833e-17)
(0.5333 -0.0086065 -7.43466e-18)
(0.202973 -0.197567 1.26546e-18)
(0.487262 0.0541655 0)
(0.444188 -0.00640524 1.47384e-17)
(0.441625 -0.150556 1.33647e-20)
(0.494795 -0.0441064 -3.05617e-17)
(0.211503 -0.0423367 0)
(0.480097 -0.00774514 3.0878e-17)
(0.775225 0.130495 0)
(0.532998 0.00104307 -5.66192e-18)
(0.280517 -0.18846 0)
(0.321549 -0.20352 4.33188e-19)
(0.489371 0.0231306 0)
(0.595345 -0.00921218 0)
(0.429498 -0.0375553 1.3719e-17)
(0.314091 0.176132 2.57344e-17)
(0.34523 0.0927661 -8.93408e-18)
(0.27222 0.211987 3.23284e-20)
(0.495693 0.0187701 2.95799e-17)
(0.374908 -0.196347 -1.23732e-18)
(0.415469 -0.0626271 -2.95374e-18)
(0.510881 -0.079639 0)
(0.537426 -0.0341518 -1.56238e-17)
(0.394379 0.0158553 -1.89996e-17)
(-0.13212 -0.00510994 5.20078e-19)
(0.486057 -0.00632316 0)
(0.502964 -0.0762827 1.52165e-17)
(0.661513 -0.014309 0)
(0.769486 -0.0672147 0)
(0.570208 -0.0626917 0)
(0.673404 0.0790121 5.91446e-18)
(0.533155 -0.0253342 1.65425e-17)
(0.52981 -0.0219046 -9.93598e-19)
(0.440132 -0.0194508 2.26114e-17)
(0.203264 0.0180231 -1.8399e-19)
(0.144238 -0.00878435 3.93497e-19)
(0.923479 -0.107514 -2.38644e-18)
(0.693495 -0.154387 8.55798e-18)
(0.430913 -0.110579 1.21973e-17)
(0.0627043 0.319762 0)
(-0.107081 -0.123144 -2.55117e-19)
(-0.0602303 0.178327 -2.41825e-19)
(0.550563 0.150949 1.55152e-18)
(0.586034 0.0870519 -2.89251e-19)
(-0.0771984 0.158004 0)
(-0.100705 -0.106546 -1.71762e-19)
(0.261617 0.116562 1.32931e-20)
(0.206389 -0.0859958 6.30269e-20)
(0.522436 0.0417891 7.45458e-18)
(0.643276 -0.098999 2.28297e-17)
(0.465063 -0.0146509 -2.29532e-17)
(0.743153 -0.0282007 0)
(0.490327 -0.0671884 -1.62833e-17)
(0.317881 -0.224946 6.64099e-19)
(0.473767 -0.117938 2.42346e-17)
(0.406117 0.0456362 -4.95885e-18)
(0.651161 0.0678946 0)
(0.101966 0.0447028 0)
(0.0573346 -0.0217059 0)
(0.397588 0.0244109 0)
(0.576336 -0.0771457 -6.77551e-18)
(0.559453 -0.1411 6.05521e-19)
(0.4914 0.00516161 1.59424e-17)
(0.52608 0.00688895 -1.46883e-17)
(0.464754 0.0016383 0)
(0.499123 0.0607347 1.24911e-17)
(0.471702 0.0150431 -3.66501e-18)
(0.836312 0.0822175 -1.41832e-18)
(0.472343 0.0118828 0)
(0.371528 -0.0675719 -1.4915e-17)
(0.454572 -0.0204058 0)
(0.136453 0.0141819 -9.23577e-19)
(0.209794 -0.00646076 5.44864e-19)
(0.059295 -0.0166023 -3.25461e-20)
(0.0948791 0.0287036 1.82482e-19)
(0.631032 0.175912 -9.00522e-18)
(0.0923821 -0.119458 -1.77772e-18)
(0.131293 0.151863 -3.12845e-19)
(0.476889 -0.0124395 -1.62592e-17)
(0.558043 0.0198009 0)
(0.533064 0.0311838 6.97982e-18)
(0.53825 -0.120349 1.36081e-17)
(0.415078 -0.0865974 -9.41241e-18)
(0.493771 0.195527 1.02155e-17)
(0.402181 0.0868549 9.27575e-18)
(0.482896 0.187779 -1.28135e-18)
(0.535679 0.154542 0)
(0.390829 -0.0140831 0)
(0.401473 -0.0297385 -1.18195e-17)
(0.369395 0.0129987 1.79021e-19)
(0.600751 -0.044583 -1.79195e-17)
(0.504961 -0.0471486 -1.54429e-17)
(0.510512 -0.00652653 2.98546e-17)
(0.347258 0.0555933 3.55478e-17)
(0.506686 -0.134848 -9.36286e-19)
(0.345328 -0.0149012 0)
(0.174922 -0.288392 0)
(0.223951 0.343076 -1.20275e-19)
(0.396807 -0.033994 0)
(0.486893 -0.0294349 7.93215e-20)
(0.471114 0.205875 1.712e-19)
(0.226241 -0.013028 1.69854e-18)
(0.278138 0.0184191 -9.85886e-19)
(0.549733 0.0229749 0)
(0.0427091 -0.0750511 0)
(0.0819848 0.105855 0)
(0.417069 0.125916 0)
(0.62187 0.0460819 0)
(0.435839 0.0571961 6.47805e-18)
(0.0438816 -0.0686008 -7.43451e-21)
(0.0974205 0.106287 -8.79015e-19)
(0.680569 -0.00603151 7.37826e-19)
(0.365082 -0.0211483 1.70929e-17)
(0.51913 -0.0407654 0)
(0.42449 -0.0572098 -2.40111e-17)
(0.384609 0.0498836 -1.21557e-17)
(0.00201974 -0.0626329 9.4065e-19)
(0.0270998 0.108704 -1.1635e-19)
(0.249503 -0.214019 0)
(0.858814 -0.111895 4.2708e-19)
(0.465778 -0.0606247 -1.34218e-17)
(0.501942 0.135668 1.07357e-17)
(0.116532 -0.076268 -6.97679e-19)
(0.167344 0.101321 -9.08438e-19)
(0.155914 0.109501 9.15957e-19)
(0.100636 -0.0795404 7.31322e-19)
(0.570102 -0.0152005 0)
(0.0870489 -0.213507 0)
(0.582963 0.0140132 7.83127e-18)
(0.433466 0.0551242 -2.2297e-17)
(0.29524 -0.0851794 6.21378e-18)
(-0.134007 -0.0542059 -2.07874e-18)
(-0.0963203 0.0876018 -2.89655e-19)