/*--------------------------------*- C++ -*----------------------------------*\
  =========                 |
  \\      /  F ield         | OpenFOAM: The Open Source CFD Toolbox
   \\    /   O peration     | Website:  https://openfoam.org
    \\  /    A nd           | Version:  7
     \\/     M anipulation  |
\*---------------------------------------------------------------------------*/
FoamFile
{
    version     2.0;
    format      ascii;
    class       volScalarField;
    location    "0.1";
    object      p;
}
// * * * * * * * * * * * * * * * * * * * * * * * * * * * * * * * * * * * * * //

dimensions      [0 2 -2 0 0 0 0];

internalField   nonuniform List<scalar> 
2700
(
51.6101
519.149
105.475
542.199
307.892
445.087
384.254
256.445
439.428
275.066
432.975
254.506
395.725
149.492
501.604
127.628
111.34
494.075
527.598
73.7885
438.653
315.614
224.009
233.81
524.994
66.6107
413.606
230.191
262.776
481.225
446.798
97.048
533.258
74.5536
524.367
395.913
245.657
452.919
256.694
468.51
147.461
278.188
469.194
535.854
27.2971
275.106
435.013
97.5522
497.878
133.404
450.168
445.242
475.228
75.492
543.904
190.219
524.079
56.5663
99.1866
534.693
379.508
361.52
515.84
78.1542
476.119
466.624
474.944
122.97
307.036
164.077
438.178
283.443
97.3092
537.544
81.8995
518.189
225.415
269.833
444.035
197.742
233.516
225.184
304.487
489.527
251.341
428.368
466.151
244.823
504.364
483.957
242.102
202.244
427.385
253.141
116.237
412.649
213.764
136.519
506.927
284.969
309.277
157.459
304.928
287.429
249.533
79.4717
549.628
126.62
298.53
280.702
58.2156
531.488
381.874
401.919
510.576
252.521
119.889
264.037
247.895
466.988
429.054
290.413
203.802
248.519
86.334
521.097
99.4221
499.836
131.943
92.2705
522.392
538.552
106.375
80.6004
523.036
459.86
411.807
348.001
83.8579
539.787
52.2239
530.364
272.468
278.003
259.509
516.801
89.867
453.123
67.6572
531.067
522.787
96.7141
198.168
181.284
116.825
530.732
215.711
512.017
92.5524
253.712
71.6803
524.892
122.187
121.329
31.9818
531.912
374.63
274.964
395.223
217.859
48.6566
531.848
509.693
510.35
508.635
110.201
522.075
76.5986
15.2154
537.056
471.962
339.229
477.025
533.562
64.7192
275.585
234.107
184.934
227.521
494.597
148.6
278.053
182.822
332.798
218.73
294.616
229.635
276.102
456.622
224.085
65.4211
536.303
508.756
102.525
428.24
433.588
201.598
461.874
490.024
130.798
505.742
102.353
495.109
122.807
174.286
355.348
470.689
72.6984
542.16
529.138
41.8104
323.456
322.526
207.218
469.326
206.824
359.151
374.198
437.174
115.794
509.657
432.02
318.567
191.799
62.1234
552.685
531.744
41.5212
83.396
544.435
346.056
57.4671
526.652
434.247
440.966
348.358
66.8919
59.5533
549.172
537.505
410.029
427.59
422.685
259.612
278.804
490.296
475.015
353.781
485.542
491.183
107.709
509.002
252.475
186.614
110.253
547.288
82.8217
417.417
97.0667
51.1475
527.013
464.177
259.947
285.427
75.5204
522.168
295.379
414.554
540.692
91.7332
81.4225
521.538
537.698
530.098
83.6092
62.3823
463.555
415.566
456.229
529.049
62.9244
394.26
422.022
523.43
85.2962
436.221
142.479
504.251
280.133
502.659
109.302
274.703
529.298
84.1219
328.262
231.917
230.057
343.855
489.689
72.6353
551.12
530.971
40.7261
452.741
284.896
144.736
259.517
289.017
390.691
283.757
303.541
217.284
398.839
507.512
290.763
253.262
166.851
421.951
217.289
151.714
114.874
404.194
394.262
177.508
297.762
339.96
180.291
496.034
69.3056
528.798
83.8715
520.024
261.295
275.881
154.064
474.457
273.676
129.003
539.798
26.2649
499.737
507.102
194.052
479.45
495.281
271.338
317.737
112.681
279.559
126.24
541.173
531.392
29.1818
76.9783
164.148
75.1703
545.611
534.556
51.4833
416.724
166.997
533.96
540.944
38.1059
71.8004
460.019
504.071
498.015
521.276
82.6492
82.0249
507.438
528.706
113.91
74.5144
543.327
163.421
522.546
58.1512
463.43
501.189
525.774
70.0758
231.953
290.729
273.517
402.497
385.449
322.647
383.6
494.716
79.7133
526.5
70.8537
534.061
510.994
47.4473
540.111
43.8028
546.404
490.679
520.316
52.4722
546.175
80.4067
118.48
487.505
301.584
373.698
162.383
137.057
496.611
332.425
359.286
122.299
446.197
113.136
536.687
515.439
79.196
334.198
220.231
400.437
536.48
7.31902
505.868
279.327
355.307
78.2401
525.982
521.903
100.283
537.771
112.651
395.37
291.911
275.771
90.5297
521.463
538.279
35.8588
281.852
462.142
474.275
355.983
116.041
535.163
67.7758
511.738
368.509
244.701
442.914
370.815
251.84
447.033
482.549
306.632
433.802
168.711
457.305
390.877
265.062
70.8846
524.499
181.473
26.1747
537.145
161.086
474.788
519.515
101.442
415.001
228.345
153.797
473.59
230.81
449.283
344.292
178.239
471.101
488.886
208.949
299.243
314.677
520.158
87.4893
544.83
6.10703
187.399
357.879
96.4097
532.735
21.5639
540.022
76.7408
522.414
97.7227
478.153
522.789
200.541
542.307
30.9146
191.432
160.412
442.279
286.305
299.441
118.874
537.528
19.0468
397.681
384.608
194.153
495.252
160.618
505.625
112.029
116.518
387.782
146.965
544.784
9.91591
224.357
222.079
242.46
103.36
334.406
404.734
355.75
482.682
484.349
458.801
449.947
488.655
121.175
152.129
495.833
449.148
498.484
22.1096
536.888
225.787
461.872
300.319
191.502
281.507
283.903
480.976
188.206
219.784
362.182
266.274
283.352
145.279
479.379
173.069
499.368
289.787
200.077
313.15
377.565
544.447
14.6625
542.321
25.7545
101.505
541.421
347.563
79.7011
522.655
405.982
318.078
426.403
504.859
251.127
394.196
233.146
56.665
386.75
242.625
290.639
288.279
327.689
318.711
456.882
536.002
114.449
515.815
85.947
419.295
533.222
527.078
77.8385
53.4421
463.95
307.637
505.069
109.381
274.382
277.926
84.2548
494.284
128.279
291.614
293.893
112.184
524.114
281.747
450.947
81.223
436.034
378.543
469.792
278.848
523.164
192.225
387.666
469.708
450.8
177.222
501.357
187.01
289.332
299.269
540.741
83.4348
528.347
77.3333
449.359
285.205
275.874
111.352
503.654
499.147
477.115
449.278
313.16
378.71
238.06
456.755
65.6455
534.732
544.047
73.0563
115.867
485.124
407.528
129.015
475.744
506.23
149.07
510.701
159.765
511.827
99.2075
73.6066
87.2697
550.035
534.492
264.243
498.401
96.3384
372.249
521.814
126.521
361.96
138.008
528.935
120.659
508.926
315.573
263.105
388.419
479.739
377.868
172.689
456.324
490.525
438.975
145.768
479.104
74.4354
553.354
57.2908
537.949
381.966
338.69
131.651
382.6
545.097
-11.9797
128.866
492.645
333.502
115.512
495.675
119.195
451.708
393.396
349.391
393.793
516.358
91.5163
289.446
428.349
544.258
29.2947
460.594
164.844
340.13
274.977
345.144
401.836
321.792
547.532
19.5662
333.867
313.395
1.64588
548.124
157.613
446.04
381.6
469.455
285.882
295.832
289.307
484.637
59.6278
531.807
393.557
81.6379
522.264
95.4756
526.615
328.383
52.9723
539.651
365.976
318.117
250.645
385.832
139.707
476.198
342.662
530.739
60.7627
69.0799
524.821
487.14
145.807
227.371
479.379
447.52
476.944
429.882
467.516
539.637
40.7949
175.006
470.24
117.095
132.929
467.113
449.537
111.59
544.802
-5.35397
29.9447
31.6156
537.544
548.492
510.666
346.837
300.514
503.023
112.178
470.051
472.742
87.4125
297.357
101.67
519.793
219.776
455.204
502.848
216.458
516.311
413.675
510.146
196.099
484.248
112.254
92.9973
444.077
280.677
186.249
279.26
302.264
492.69
359.092
507.833
485.918
305.527
525.559
324.72
465.822
381.271
418.916
408.733
277.439
77.7596
304.513
394.401
248.697
430.23
530.355
43.3973
322.448
201.564
274.663
77.1537
544.049
178.251
342.485
104.698
539.983
518.099
68.0273
175.075
351.582
529.105
83.1258
390.04
346.897
295.231
363.719
179.482
237.642
460.183
533.261
76.7898
205.491
217.482
519.89
53.0292
82.6986
546.449
299.241
272.198
37.2077
541.401
326.682
65.5081
530.514
361.63
474.043
500.183
148.405
380.733
367.547
484.889
119.466
426.406
484.426
285.858
298.539
310.628
200.759
298.41
355.904
347.712
522.362
122.449
499.288
93.0837
280.867
283.654
364.563
349.773
330.947
456.068
480.481
404.919
279.754
329.383
304.686
345.399
293.168
118.237
511.021
121.949
210.434
411.999
261.934
368.854
305.938
278.652
475.304
500.797
282.605
503.022
98.2823
126.795
522.449
331.845
548.419
2.84869
508.158
134.482
115.677
493.71
29.3846
531.878
257.219
398.677
212.026
50.0663
537.278
502.713
96.2752
180.165
315.213
448.023
179.598
512.411
285.457
107.182
134.398
519.548
125.632
307.654
469.027
354.986
161.277
509.923
103.149
306.685
293.103
418.96
429.68
297.939
320.938
210.06
364.212
141.744
488.138
326.578
111.992
488.382
131.487
175.229
136.776
301.162
503.044
437.002
432.08
483.748
270.393
267.347
290.658
295.453
216.18
240.079
141.597
474.243
468.169
349.204
254.126
248.315
233.128
427.601
427.71
412.908
437.231
421.36
453.766
170.895
486.116
506.724
309.958
250.322
337.135
219.038
180.677
231.03
163.228
287.428
47.0169
537.368
405.393
258.259
189.697
313.478
302.04
444.737
374.779
244.979
369.15
385.423
337.57
433.301
248.879
425.599
286.819
512.594
226.577
483.905
362.68
439.326
325.217
350.846
286.239
463.312
397.283
348.276
182.11
304.315
467.192
88.228
264.569
333.638
302.193
285.698
473.747
412.219
170.172
387.565
346.05
344.146
280.721
88.8711
504.312
525.399
122.602
489.821
192.442
172.414
489.265
144.729
479.602
267.224
407.681
249.633
134.338
498.743
107.577
398.293
421.473
527.993
84.3899
536.358
8.87418
527.504
75.8604
109.988
445.17
236.854
531.873
59.5022
316.02
327.469
133.703
202.003
413.479
167.523
265.455
358.831
94.7986
412.56
381.471
414.799
358.702
468.118
185.956
196.213
261.046
240.857
260.508
232.553
396.982
202.059
404.93
258.565
226.466
532.87
54.6192
365.943
496.359
479.605
359.052
241.277
172.937
285.281
163.213
156.676
464.359
507.801
147.031
116
485.995
336.763
282.485
381.634
403.377
322.398
-0.683726
539.597
394.491
402.49
164.187
134.125
332.922
531.489
65.9367
131.206
533.843
516.78
115.998
454.961
323.925
303.548
425.099
426.885
59.6498
529.8
456.952
47.9275
31.8167
541.818
534.221
136.918
448.504
295.261
501.46
110.598
30.5044
541.052
532.776
72.5017
151.64
84.4131
525.495
345.558
39.428
540.223
486.922
268.458
175.38
212.046
520.632
64.4437
103.406
529.596
327.746
190.034
305.028
498.273
488.215
237.607
138.911
52.3159
523.215
546.035
73.1068
432.378
117.325
487.543
149.442
501.264
344.709
167.752
252.601
369.047
483.821
284.875
205.164
207.17
514.262
92.0317
224.408
181.288
151.326
471.308
304.722
171.429
489.402
304.183
291.086
449.593
503.348
113.923
116.66
363.372
474.477
457.876
448.481
325.4
333.045
469.731
466.984
191.644
473.171
545.961
18.8635
472.083
443.629
328.646
283.983
256.401
439.447
384.015
501.487
516.532
363.253
378.996
219.011
160.185
292.318
483.009
205.395
129.532
501.494
503.816
281.881
277.121
123.099
540.693
29.1066
194.737
181.961
128.708
499.461
387.518
388.629
448.751
323.131
472.868
215.7
204.985
530.991
54.5484
496.644
522.399
76.3559
182.699
507.058
102.943
519.248
84.9953
143.396
343.45
323.616
132.907
9.15392
551.063
191.585
194.254
318.278
497.904
370.495
279.674
120.28
44.1609
530.821
503.061
312.476
466.723
114.835
505.75
482.98
240.705
343.262
432.037
200.611
504.943
309.601
314.788
372.817
470.012
456.21
520.929
93.219
368.247
318.78
498.249
331.977
469.33
523.847
76.7284
339.724
488.345
262.148
170.04
248.986
348.506
106.767
511.829
148.204
509.483
98.1563
528.318
280.35
435.842
438.302
112.138
540.733
40.0481
52.4397
532.682
370.398
185.688
182.585
504.024
474.843
458.311
466.708
482.382
121.15
486.433
460.085
165.789
195.773
492.737
178.462
442.608
152.874
507.569
457.391
190.072
534.239
63.4161
380.082
380.775
126.617
138.59
508.979
456.577
391.89
509.158
105.107
395.193
446.45
127.052
518.595
96.4185
511.356
281.426
406.66
220.012
416.938
234.915
272.64
282.526
249.463
448.771
247.288
441.082
470.245
436.416
426.708
523.489
101.913
78.6961
524.483
99.35
534.372
71.6948
509.855
107.757
530.026
79.1554
509.907
129.524
330.503
273.978
224.801
529.028
62.4541
363.678
540.326
35.4356
290.021
357.241
540.056
50.5589
475.474
379.958
192.41
115.478
524.11
312.371
316.497
542.933
83.7855
527.618
58.293
209.079
530.469
63.1794
437.966
179.264
113.845
291.181
281.992
122.419
274.03
406.913
117.428
502.309
443.108
208.835
112.899
505.276
82.8016
528.972
384.637
371.477
429.519
298.131
439.253
279.526
519.052
-12.9216
552.621
89.4893
127.713
521.922
516.359
89.0428
303.885
291.342
385.353
449.916
390.064
154.03
259.24
203.45
141.395
296.227
216.964
433.191
286.076
495.189
549.302
-22.7747
108.687
25.0982
537.397
507.345
137.006
47.1646
541.386
347.754
302.282
185.049
451.884
386.192
332.029
480.539
215.44
19.4366
542.105
421.309
432.237
373.39
422.667
151.743
432.771
262.146
418.15
345.569
140.027
546.929
0.357674
108.297
507.613
529.789
84.275
474.485
446.584
335.904
323.653
56.6217
537.958
512.404
90.0456
214.89
384.31
118.973
511.737
103.845
442.84
489.721
138.498
492.288
269.082
509.441
110.816
315.381
136.977
329.531
355.472
429.944
215.597
492.304
281.777
202.855
461.98
407.591
443.35
168.81
451.683
190.094
482.084
397.49
476.96
215.554
384.614
293.282
370.116
345.115
234.531
472.917
471.064
293.105
331.659
166.725
470.291
49.2062
467.584
534.844
44.5436
536.3
222.524
409.025
517.335
102.524
81.5678
521.339
294.826
345.486
107.745
504.847
179.82
344.998
99.897
506.384
301.399
465.074
289.426
545.484
21.4776
18.9019
528.827
546.396
29.3482
24.6517
529.586
245.783
481.422
116.623
495.173
146.212
367.819
289.092
324.668
468.037
349.024
484.725
127.349
157.982
507.295
85.7968
290.844
451.17
455.209
491.114
228.274
273.26
76.0374
91.8156
545.85
531.652
104.075
509.11
182.979
202.789
215.53
480.738
282.074
478.769
482.456
524.817
76.3378
480.545
-21.3338
549.131
536.636
26.237
506.878
108.612
405.018
329.126
324.082
268.231
509.091
256.736
222.803
57.3253
535.861
243.247
207.866
140.54
40.7458
541.648
295.532
453.8
93.5478
514.747
494.904
456.936
272.105
482.998
295.679
440.396
367.134
363.092
534.274
30.9167
271.823
245.437
259.19
444.281
308.735
127.409
351.734
406.503
360.612
303.262
311.427
531.986
36.8784
74.6062
544.352
536.704
51.963
81.418
525.72
297.639
292.911
335.924
404.452
276.29
364.317
115.055
420.596
102.796
504.181
262.959
118.184
497.37
178.506
361.855
344.331
294.332
375.855
487.275
64.1858
519.84
541.132
80.361
181.906
481.936
379.255
85.0047
82.5857
337.747
471.709
109.613
505.476
392.535
456.036
207.199
427.833
226.539
531.836
25.0392
459.429
489.372
182.81
197.273
496.819
482.934
153.598
164.715
479.935
488.13
532.98
53.4688
474.773
387.049
351.647
212.3
526.257
85.2795
10.4314
549.351
453.373
362.443
465.122
474.528
522.667
127.762
184.56
502.47
93.2359
100.085
381.087
99.3721
376.326
522.223
128.722
188.646
153.122
501.613
97.7374
423.299
248.454
307.093
416.492
200.944
497.29
129.584
434.572
211.218
539.203
90.7611
348.85
515.227
65.8828
288.909
414.134
263.194
28.6962
537.255
246.688
378.306
388.454
420.694
105.872
533.654
77.9553
517.163
528.484
335.479
425.772
195.524
244.124
320.461
305.973
345.134
362.761
533.202
33.4448
55.9718
555.014
522.336
430.716
477.592
525.183
140.057
537.922
74.3934
131.013
43.2385
533.756
247.255
446.256
536.755
27.7936
463.644
472.864
529.407
61.218
98.3272
502.709
517.533
127.129
483.375
118.532
100.155
122.216
500.441
47.53
44.7236
529.876
540.906
435.689
224.102
389.03
379.014
191.912
443.445
371.437
193.295
339.77
216.01
223.91
477.824
115.127
491.395
179.455
461.414
306.175
493.021
459.213
230.217
214.393
528.767
60.2178
163.092
113.237
345.234
216.194
236.67
345.86
533.816
28.8211
175.026
345.922
226.127
155.767
454.302
189.557
9.37405
543.256
453.011
486.376
61.633
530.951
356.806
489.643
196.803
508.075
528.944
83.0669
453.423
509.18
61.7815
530.319
214.064
464.819
515.404
136.57
495.336
106.536
423.937
502.001
98.9624
210.035
496.466
389.417
528.272
97.6172
360.631
68.0587
325.471
160.165
195.684
333.557
253.441
202.361
187.887
428.22
390.855
412.638
474.519
456.112
443.131
373.242
214.888
404.897
495.948
116.909
488.532
135.296
510.344
105.006
497.308
167.09
352.339
328.676
145.644
92.5504
516.006
189.337
48.0605
535.942
200.198
363.088
126.829
411.545
470.94
458.321
88.2549
524.624
313.643
269.23
266.592
399.422
366.725
458.78
521.289
123.392
207.418
501.479
95.3057
519.028
418.559
209.123
347.893
502.863
260.248
100.946
242.094
450.165
456.251
443.381
112.634
500.598
169.449
215.219
237.229
225.932
317.737
504.99
149.056
446.735
120.982
483.477
363.662
541.55
65.4517
533.514
40.7777
108.193
503.565
410.797
304.969
446.186
509.672
475.748
133.274
518.74
143.765
514.243
100.609
495.182
504.707
109.168
490.501
464.363
392.832
308.721
118.832
372.88
123.531
371.609
189.832
510.639
131.387
489.206
443.53
179.622
450.033
180.546
130.204
324.063
488.491
208.921
61.0786
519.169
540.958
79.3194
456.51
550.773
0.861154
362.175
380.842
112.685
509.192
485.305
175.968
214.305
200.06
496.145
277.933
302.284
389.252
347.295
368.927
102.226
496.443
510.746
311.483
358.974
387.28
464.14
127.725
504.697
473.149
239.205
417.541
214.442
538.638
25.1568
211.68
558.7
48.1714
43.8738
562.542
542.486
16.7008
447.509
247.065
78.4397
528.559
487.178
176.679
325.577
148.571
476.186
521.463
50.7495
242.392
543.894
78.2104
490.057
461.279
346.384
547.324
12.8943
120.403
225.907
232.879
176.224
176.448
472.31
58.8775
537.104
455.921
443.346
459.326
164.1
299.617
373.026
299.376
476.479
106.882
121.004
291.098
72.2062
547.082
530.987
37.5482
314.003
543.965
84.1726
146.442
44.9171
523.552
443.333
364.587
343.789
473.8
153.705
340.978
484.125
495.703
537.96
528.65
66.1141
84.1315
129.758
451.787
476.283
169.702
190.91
483.558
463.729
537.141
107.967
66.6615
515.061
314.686
513.206
145.266
449.365
538.715
111.015
63.4035
513.609
309.922
511.501
123.576
506.79
104.539
507.314
144.641
498.882
109.176
378.52
484.02
77.8241
521.988
435.745
417.24
351.04
449.957
524.763
131.39
524.113
540.772
32.9674
530.186
85.0574
155.008
506.923
415.901
139.455
530.911
414.705
513.042
122.727
330.001
365.812
296.757
260.615
306.091
53.7063
527.088
474.847
433.451
528.706
55.7216
72.5812
525.455
515.885
102.413
271.332
266.78
437.442
151.544
525.005
471.558
211.29
505.929
134.528
235.426
496.183
152.091
361.078
449.412
175.167
477.407
134.986
405.048
244.472
168.134
388.729
78.5183
507.18
106.348
532.093
535.733
61.9569
267.806
65.0635
528.744
145.229
467.96
129.98
480.778
184.027
206.893
361.991
167.617
64.5178
531.797
481.438
190.905
424.476
420.9
154.833
475.773
438.081
396.263
161.884
468.208
90.8151
192.267
501.591
388.134
159.091
478.203
170.253
479.941
469.345
91.1506
489.841
29.9187
547.046
31.7
545.138
269.739
543.117
15.499
440.916
425.275
470.414
472.393
481.82
442.323
401.946
296.928
322.383
125.27
289.5
292.715
464.174
437.847
429.302
383.488
490.961
315.221
118.023
62.1473
531.719
348.09
129.073
46.9965
538.434
517.969
122.492
92.8679
507.673
189.559
488.567
134.571
118.932
533.211
514.893
259.159
47.8273
531.212
545.753
43.6103
482.173
216.913
491.544
202.513
460.723
240.109
350.299
476.372
204.752
353.28
433.166
478.423
201.519
61.1909
548.147
388.718
24.8918
539.428
287.794
334.531
326.301
542.652
29.5887
394.922
415.997
398.586
406.704
282.52
271.123
388.837
402.627
535.644
57.4943
38.145
542.1
20.0034
539.758
333.564
396.968
342.722
229.877
233.738
517.073
506.557
446.57
379.971
380.564
423.623
411.094
409.08
421.6
313.996
90.3533
276.176
449.707
450.853
526.269
334.333
293.922
114.449
430.753
212.364
487.033
189.283
453.962
217.817
201.04
102.117
510.452
107.012
78.0015
518.269
288.474
513.674
103.354
503.709
130.97
493.575
486.379
347.332
449.534
221.651
303.95
4.07132
549.455
279.035
234.193
217.257
418.352
530.466
521.993
225.212
186.975
263.491
239.616
419.363
247.904
397.347
260.837
347.566
516.605
90.9977
508.348
102.299
495.446
147.983
87.9779
540.453
353.221
520.51
59.3086
450.993
341.541
293.955
275.415
483.23
269.91
-1.81931
550.753
473.887
425.13
413.847
63.3585
540.914
537.774
39.1761
312.054
358.924
94.3901
105.123
465.766
422.61
375.177
335.789
474.022
535.129
62.385
63.4916
534.916
533.271
57.2034
-2.40032
551.061
317.205
491.598
192.553
155.943
468.154
129.541
235.401
267.164
152.76
197.083
226.413
425.503
489.463
125.051
513.411
92.7752
419.403
540.831
24.087
444.921
531.904
55.0327
138.455
426.62
67.9056
530.166
387.594
133.674
145.273
45.8094
537.314
415.018
536.437
49.2127
203.121
63.749
538.478
55.6042
539.845
494.771
493.32
285.156
497.623
481.966
354.291
44.5711
49.3363
545.98
533.254
92.2385
511.972
388.592
192.487
246.79
457.918
443.953
528.744
523.668
496.135
216.096
212.198
525.98
66.2821
494.07
529.753
526.298
63.625
50.0579
526.918
541.731
57.4752
515.169
94.5949
70.4638
137.989
372.584
331.822
122.304
261.969
404.609
421.146
268.83
157.669
217.825
229.277
244.751
311.46
313.335
326.47
335.848
97.4528
465.815
110.019
264.472
255.291
211.508
432.872
435.202
336.405
224.855
131.728
533.81
96.2696
280.228
68.4512
526.436
532.147
96.3631
450.833
71.9342
524.313
81.0427
526.793
353.627
346.932
412.79
523.926
539.232
121.08
106.222
131.421
130.326
254.567
268.258
165.417
430.577
405.876
268.874
466.851
532.856
83.0842
185.032
149.165
461.583
452.191
285.452
181.772
201.218
245.355
431.685
283.876
282.542
404.973
222.359
405.052
397.384
97.0066
521.404
222.273
473.884
234.494
479.568
188.106
444.887
200.416
435.578
334.056
540.581
48.3842
536.521
291.674
58.141
383.671
462.68
487.902
291.047
476.158
388.025
372.444
210.063
292.385
271.858
256.059
298.972
319.555
352.72
97.0728
513.309
127.267
495.119
294.017
488.758
376.226
372.273
225.677
129.159
521.407
195.096
495.561
97.6089
183.418
440.301
245.79
236.113
289.142
485.367
341.797
245.986
86.3588
518.643
341.253
171.491
237.564
489.358
495.467
286.872
262.926
281.577
487.031
396.514
457.433
275.241
329.222
178.663
293.616
308.164
510.529
537.601
93.7841
520.429
106.27
157.212
157.399
279.402
305.852
33.398
529.148
29.3217
545.259
280.105
387.152
408.395
61.2623
540.361
70.3222
522.961
356.712
276.44
291.198
180.212
372.325
450.437
275.79
271.376
110.946
530.3
524.182
46.1092
38.4385
540.422
506.073
81.0063
488.58
329.067
104.116
522.244
74.0514
525.354
431.605
430.761
442.017
450.702
398.773
177.517
266.025
319.682
423.58
286.841
386.797
476.9
140.536
430.319
422.528
173.942
490.815
480.552
473.447
458.788
252.427
493.229
498.293
416.533
287.132
289.267
443.301
363.13
447.964
441.484
280.663
)
;

boundaryField
{
    frontandback
    {
        type            empty;
    }
    simetry
    {
        type            symmetry;
    }
    inlet
    {
        type            zeroGradient;
    }
    outlet
    {
        type            fixedValue;
        value           uniform 0;
    }
}


// ************************************************************************* //
