/*--------------------------------*- C++ -*----------------------------------*\
  =========                 |
  \\      /  F ield         | OpenFOAM: The Open Source CFD Toolbox
   \\    /   O peration     | Website:  https://openfoam.org
    \\  /    A nd           | Version:  7
     \\/     M anipulation  |
\*---------------------------------------------------------------------------*/
FoamFile
{
    version     2.0;
    format      ascii;
    class       volVectorField;
    location    "0.1";
    object      U;
}
// * * * * * * * * * * * * * * * * * * * * * * * * * * * * * * * * * * * * * //

dimensions      [0 1 -1 0 0 0 0];

internalField   nonuniform List<vector> 
2700
(
(0.789534 0.337866 -2.85974e-17)
(0.60519 -0.43418 -3.48256e-16)
(0.209822 -0.627237 3.4292e-17)
(1.05602 0.190589 1.76248e-16)
(1.49413 0.044941 -2.2772e-16)
(0.223724 -0.514102 -4.32897e-16)
(1.20234 -0.797364 -2.17998e-16)
(0.44295 -0.669209 7.73039e-17)
(0.103261 0.223644 2.61212e-16)
(2.30747 -0.370143 -3.42915e-17)
(0.391602 0.261426 -1.41343e-16)
(1.74075 0.591945 -7.06948e-17)
(1.95004 -1.36485 1.13868e-16)
(1.2057 -0.475368 0)
(0.843012 -0.729702 2.48969e-16)
(0.953394 0.614677 -2.74977e-17)
(0.803648 -0.379832 5.36419e-17)
(0.370397 0.68494 -1.5335e-16)
(0.659127 0.529008 -4.99402e-16)
(0.257852 1.01615 -2.5215e-17)
(1.2695 -0.205189 -2.76549e-16)
(1.32142 -0.741504 1.11795e-16)
(0.529416 1.26021 3.87378e-17)
(0.63279 1.16615 0)
(0.778553 -0.029181 0)
(1.87751 -0.118454 2.28046e-17)
(0.595321 0.259343 -1.56438e-17)
(0.301676 -0.346691 0)
(0.683553 -0.124888 0)
(0.184657 -0.546489 0)
(0.522483 0.0888907 2.80055e-16)
(0.573855 -0.223982 -9.56993e-17)
(1.59315 -0.144848 -1.75836e-16)
(1.21289 0.383597 -2.01892e-17)
(1.08231 0.0686017 1.69383e-16)
(0.734212 -0.922675 0)
(0.421738 1.19017 0)
(0.452907 -0.259228 7.17491e-17)
(0.978132 0.475505 0)
(1.07691 0.777184 1.42283e-16)
(-0.479265 -0.920935 1.96516e-17)
(-0.405598 -0.431064 0)
(0.921486 0.1178 1.45434e-16)
(1.02717 0.100649 -4.64293e-16)
(-0.453365 -0.0890935 1.34345e-17)
(1.07951 -1.05433 0)
(0.627085 0.960749 0)
(-1.53825 0.707728 -6.06489e-17)
(-0.400361 -0.608635 4.24339e-17)
(-1.18024 -0.450184 9.41244e-17)
(1.15139 0.310952 -1.45045e-16)
(1.43529 0.473868 1.3323e-16)
(0.105597 -0.48406 0)
(1.62424 0.211782 4.147e-17)
(1.27112 -0.155917 3.27605e-16)
(0.538314 -0.288978 1.15197e-16)
(1.24968 0.137228 -9.41552e-16)
(1.45955 -0.132039 5.30572e-17)
(1.68993 -0.295652 -1.67956e-17)
(1.19764 -0.0315944 0)
(-0.956017 0.530805 -5.95212e-17)
(0.0855743 0.454698 2.17078e-16)
(1.17987 0.0219358 3.23233e-16)
(1.53599 0.430597 -4.21122e-17)
(-0.146954 0.159456 0)
(-0.566165 -0.568471 0)
(-0.209492 -0.648714 1.49525e-16)
(-0.491192 0.511693 7.5128e-17)
(-1.38251 -0.647883 2.20698e-16)
(-0.653169 -0.849298 5.02523e-17)
(1.64236 -0.187909 1.40467e-16)
(0.978801 -1.12903 0)
(0.470733 -0.540051 0)
(0.837521 0.129903 -1.5554e-16)
(0.446496 0.566553 -1.14913e-16)
(0.796807 -0.143541 7.49489e-17)
(0.377395 0.616549 -3.16655e-17)
(0.25921 -0.528768 -2.15389e-17)
(0.619585 0.182328 -4.1078e-16)
(-0.224485 -0.288337 -2.77633e-17)
(1.32553 -0.559305 0)
(-0.0224049 -0.587364 0)
(-0.668874 -0.0723409 3.18963e-16)
(0.0138345 0.21173 3.15146e-16)
(-0.677829 -0.434143 -3.27769e-16)
(-0.95426 0.0624839 -6.67097e-16)
(0.571588 -0.209783 -4.51575e-16)
(0.649601 0.345466 0)
(-0.00961771 -0.31122 4.43211e-16)
(0.0965299 -0.179666 0)
(1.76097 -0.418856 0)
(1.51697 0.76447 -1.01614e-16)
(1.19817 -0.0581961 1.25016e-16)
(0.286771 0.648519 -8.99628e-17)
(-0.66929 -0.637983 -7.66114e-17)
(0.246139 0.562674 -1.30073e-16)
(0.0513694 -0.372925 1.47821e-16)
(-1.23063 -1.31325 5.00563e-17)
(0.313149 -0.214008 6.195e-16)
(0.722715 -0.275058 1.80805e-16)
(-1.03677 0.945211 0)
(0.235775 -2.29543 2.91347e-17)
(-0.650404 -0.250631 -1.94434e-16)
(-0.58679 0.172411 1.86243e-16)
(0.769089 -0.166674 0)
(3.05177 -1.00568 -2.77965e-18)
(1.33279 0.113525 -3.93937e-17)
(-0.611844 -0.236673 0)
(0.501902 1.34275 3.71814e-16)
(1.1332 -0.182947 -3.24883e-16)
(2.76727 1.20266 -4.12607e-18)
(1.38388 -0.152009 0)
(0.217054 0.667332 0)
(0.632943 -1.00763 -2.30614e-16)
(0.412333 -0.565784 3.29356e-16)
(-0.995399 -1.31383 0)
(0.188592 -1.17434 -5.80318e-17)
(0.168586 -0.0753478 2.35027e-16)
(0.788 -0.521918 -1.71165e-16)
(0.0375744 -0.334234 0)
(-0.464348 -0.580721 -2.93978e-16)
(-0.428603 0.474626 1.66925e-16)
(0.461183 0.304574 1.34904e-16)
(-0.234504 -0.546716 0)
(1.76162 0.553512 7.33846e-17)
(1.28199 0.331409 -1.71516e-16)
(-2.25792 0.21717 6.48589e-17)
(-0.664071 -0.0251215 -1.61694e-16)
(-1.5277 0.116579 -4.50766e-17)
(2.42991 2.16241 -3.68541e-17)
(1.26147 -0.438465 -3.09673e-16)
(1.28792 0.45709 -3.19927e-16)
(2.5336 -2.04195 -1.53301e-17)
(1.1573 1.18701 3.83224e-18)
(1.00015 0.713726 -2.26904e-17)
(1.37225 0.255654 0)
(1.35671 -0.631005 -3.9895e-18)
(0.675872 0.456466 3.21939e-16)
(-0.486911 0.689611 -1.90816e-17)
(0.297571 -0.586078 1.63372e-16)
(-1.17937 -1.28478 0)
(0.50035 0.190023 -1.61678e-16)
(-0.900504 0.917797 0)
(-0.157871 0.76244 0)
(0.759281 -0.44134 -1.69581e-16)
(1.52327 0.556659 3.24391e-16)
(1.8511 0.891346 7.10206e-17)
(1.99611 -0.275656 0)
(2.14877 0.866087 -1.69316e-17)
(1.66471 0.529542 1.85944e-16)
(1.51392 0.37047 3.29117e-16)
(2.04276 0.819235 -6.27763e-17)
(-0.336344 -2.22988 3.35662e-17)
(-0.433205 -1.13868 -2.78935e-17)
(2.62973 0.633309 1.66718e-17)
(1.37978 -0.294362 1.65687e-16)
(0.437052 0.13923 1.39399e-16)
(1.38708 0.330714 -1.59933e-16)
(2.39925 -0.382159 0)
(1.16854 0.58721 -7.61195e-17)
(0.373257 -0.519923 2.59594e-17)
(0.621609 -0.367553 0)
(0.872236 -0.807972 3.88486e-17)
(1.43235 -1.10931 0)
(0.925659 0.176135 0)
(1.15974 -0.0540226 -3.54252e-16)
(0.369033 -0.572132 4.0206e-16)
(-0.681102 0.287834 0)
(-1.09484 0.588547 -2.71052e-16)
(2.21261 0.124363 7.22603e-17)
(1.06244 -1.51529 0)
(1.07733 -0.173066 -3.0795e-16)
(1.25489 -0.615607 1.5524e-16)
(0.930502 -0.54862 0)
(1.01576 0.571074 0)
(0.557864 1.34507 0)
(0.513936 0.280865 -1.68102e-16)
(0.0145095 0.619535 3.37588e-17)
(-0.772477 -0.110096 0)
(1.0499 -0.0594575 0)
(1.11168 0.841562 2.60324e-16)
(0.485649 0.442147 0)
(1.55535 -0.306769 -4.20716e-17)
(1.15666 0.177612 3.23595e-16)
(1.17296 0.974044 -3.95964e-17)
(0.748253 0.319295 4.90125e-17)
(-0.22631 -0.56749 -1.40113e-16)
(-0.212803 1.14966 -2.5405e-17)
(1.27914 0.437614 -8.20619e-17)
(-0.430781 -0.711029 3.22557e-16)
(0.949685 0.394315 1.31646e-18)
(0.149607 -0.377076 -1.74943e-16)
(-0.678688 -0.776604 0)
(1.21443 0.0421131 2.19943e-16)
(0.702142 0.738619 -1.37593e-16)
(0.880422 -0.875366 1.02414e-16)
(2.06524 -0.946537 1.81013e-16)
(1.14145 0.134184 1.95485e-16)
(1.79712 -0.173719 1.30209e-16)
(2.09188 -0.636735 -1.05338e-16)
(0.658879 0.47338 4.02236e-17)
(1.06278 0.105051 1.30812e-18)
(0.819377 -0.0156311 -4.07995e-16)
(0.572555 -0.0974133 -2.58718e-17)
(-0.285846 -0.0398677 -1.24891e-16)
(1.65013 -0.320602 0)
(-0.0825179 -0.577182 1.27855e-16)
(-0.940962 -0.200276 3.25962e-16)
(-0.00306621 0.696688 -2.11911e-17)
(-0.692871 1.35488 2.45381e-17)
(0.815921 -0.748554 6.44457e-17)
(0.948743 -1.17271 -5.01649e-18)
(1.30764 0.165464 -7.78134e-17)
(1.31401 0.158867 1.62703e-17)
(0.761515 0.501719 0)
(1.17507 -0.562511 -1.68627e-16)
(0.331348 0.830119 -1.35706e-17)
(1.87951 0.595243 0)
(1.08877 -0.386063 -2.10218e-19)
(1.22869 0.191042 0)
(1.32544 -0.767723 0)
(1.33306 -0.566202 0)
(2.03695 -0.845237 0)
(0.117851 0.783825 1.3952e-16)
(0.635022 -0.726857 0)
(0.68897 -0.384165 0)
(-1.23664 -1.99933 3.05977e-17)
(-0.589409 -0.581577 0)
(0.396621 0.226342 -1.42829e-16)
(-0.712687 0.442296 -7.45261e-17)
(0.219346 0.11191 0)
(-0.0249638 0.273812 0)
(-1.39923 0.247796 -2.10546e-16)
(0.504295 -1.06815 6.34612e-17)
(1.29167 -0.40665 -8.48089e-18)
(1.15896 0.0855889 -3.04349e-16)
(1.13675 -0.0968287 5.49738e-16)
(1.15959 0.456844 -2.77645e-17)
(0.0585022 -0.696928 -6.60789e-17)
(0.805282 0.120039 -3.7164e-16)
(0.673945 0.00575652 -2.33486e-16)
(-0.331501 0.854046 -6.54675e-17)
(0.853505 -0.185983 0)
(1.20417 0.666377 -2.20986e-16)
(0.20594 -0.0966602 -7.43846e-17)
(1.12699 -0.452394 2.58692e-16)
(-0.707393 1.08693 4.79645e-17)
(-0.932896 -0.903558 4.16448e-17)
(0.995351 -0.265163 6.5354e-16)
(1.00598 0.245268 3.1413e-16)
(1.18938 0.150409 0)
(2.45426 -0.556009 5.01123e-18)
(0.469648 0.34279 -2.9166e-16)
(0.477674 0.882472 -8.772e-17)
(-0.0190976 -0.216513 0)
(0.173006 -0.641893 1.59931e-16)
(0.827127 -0.245244 1.57036e-16)
(1.63268 0.675888 0)
(-0.742998 -0.61246 -1.55155e-16)
(0.567947 0.593005 0)
(0.138619 0.462177 -1.46889e-16)
(-0.228215 0.244967 0)
(0.629762 -1.04831 2.53642e-18)
(0.843798 -0.956111 -6.26598e-17)
(-0.445279 0.84653 1.19066e-16)
(1.20357 -0.665735 -4.45407e-17)
(1.59739 1.50202 -3.73592e-17)
(1.54885 0.392351 0)
(-0.902905 0.40161 -2.13451e-17)
(1.4997 -1.31964 2.28973e-18)
(1.15754 0.679796 -2.59025e-16)
(0.213258 0.495158 -3.03128e-16)
(-0.941909 -0.0155355 0)
(-0.749319 0.326883 -2.13226e-16)
(1.30935 -0.802064 5.99096e-17)
(1.063 0.279059 2.82034e-16)
(1.79395 -0.179943 0)
(-0.78675 0.321103 5.25173e-16)
(1.10452 -0.308375 3.88257e-16)
(1.32372 0.94105 0)
(1.14307 0.259839 4.977e-17)
(1.17803 0.172854 -8.22516e-17)
(0.759689 0.00412402 3.47663e-16)
(0.838441 0.143183 0)
(-0.66599 1.01473 1.00207e-16)
(-0.156755 -0.693985 -7.12212e-17)
(1.38761 -0.354498 6.88571e-18)
(2.42875 0.376124 1.53053e-16)
(0.328678 1.02518 0)
(0.738578 -0.215159 -7.72757e-17)
(0.825928 -0.614532 -8.6252e-17)
(0.950209 -0.0545198 1.18687e-16)
(1.39817 -0.130315 -3.89655e-16)
(0.751073 -0.227214 -2.43443e-16)
(-0.168854 -0.920746 9.09964e-17)
(0.83086 0.0340024 2.87805e-16)
(-0.177699 0.589805 0)
(0.108233 -0.416627 1.82458e-16)
(0.818012 -0.400361 -1.91067e-16)
(0.132594 0.316605 -3.80198e-16)
(-0.19744 -0.27256 0)
(0.930262 -0.914689 8.96312e-17)
(0.846825 0.364525 1.73601e-16)
(0.62572 0.585402 0)
(0.398613 0.152702 1.50889e-16)
(0.771791 1.32883 -1.46752e-16)
(1.05297 -1.1121 -1.24002e-16)
(0.400584 -1.62834 1.09258e-16)
(-0.544653 0.274111 0)
(1.77493 -0.0125705 7.41046e-17)
(1.28211 0.0909088 0)
(1.28522 -0.0880639 3.172e-16)
(1.51071 0.123065 -8.06699e-18)
(-0.0394179 0.227243 0)
(1.10809 -0.353465 -1.94787e-16)
(-1.55962 -0.51945 0)
(0.416469 0.197856 -1.82473e-16)
(0.791175 -0.58425 9.16522e-17)
(0.673439 -0.588062 4.35785e-16)
(0.873824 -0.567599 0)
(-0.296968 -0.205508 -2.29799e-17)
(0.39367 -0.0586958 2.24477e-16)
(-0.0620361 -0.91893 -1.35168e-16)
(-0.325802 -0.281736 -6.59866e-16)
(0.786512 0.396755 0)
(0.364597 -0.241858 -1.80033e-18)
(1.63395 0.892572 -1.29249e-16)
(1.60897 0.866302 2.51545e-16)
(0.419871 -0.0428996 -1.3892e-16)
(2.72797 0.17896 -3.33926e-18)
(0.208782 0.178861 4.30874e-17)
(0.342178 0.138139 -3.10478e-17)
(-0.913203 -0.500878 -3.19946e-17)
(0.529931 0.242521 1.1643e-16)
(0.262782 -0.508848 1.48651e-16)
(0.599336 0.824542 -9.78982e-17)
(2.66256 -0.563764 0)
(0.266863 0.239755 0)
(-0.3895 1.7224 0)
(0.195004 0.752736 -1.89655e-16)
(0.0530256 -0.710465 0)
(0.502225 -0.349503 5.36562e-16)
(1.62051 -0.329359 0)
(1.32291 -0.135801 1.72219e-16)
(2.56445 0.674125 0)
(2.28425 -0.623054 4.48811e-16)
(1.63063 0.364343 -2.19443e-17)
(0.328671 -0.657608 0)
(1.06881 -0.0200701 0)
(1.62216 1.78584 1.25311e-17)
(0.0643568 0.741508 0)
(1.44443 0.0241827 0)
(-0.256756 0.459866 -2.8387e-16)
(1.66235 -0.331663 -3.01182e-16)
(2.3456 0.403934 0)
(0.47965 0.236046 -8.61501e-17)
(1.2157 -0.0934949 -2.00151e-16)
(-0.717742 1.4571 -9.59969e-18)
(2.66636 0.624119 -8.68617e-17)
(-0.372304 0.268738 -8.16589e-17)
(1.02772 -0.131382 -3.34349e-16)
(0.928441 0.254934 8.40708e-17)
(1.17167 -0.0192455 -1.93888e-17)
(1.07903 0.840932 -2.72849e-17)
(1.80596 -0.0373083 -8.00168e-17)
(-0.417006 0.928917 2.40871e-18)
(0.478516 -0.0320526 -1.19101e-18)
(0.709294 0.129555 1.52895e-16)
(-1.14573 0.224715 0)
(-0.0367757 -0.340526 0)
(-0.0775904 2.38673 0)
(1.20872 -0.344578 -1.54981e-16)
(1.17196 0.0778425 1.57869e-16)
(1.10984 0.329232 7.78351e-18)
(1.56247 -0.654268 4.33788e-17)
(1.41615 -0.150123 0)
(-0.162571 -1.13247 -2.14231e-17)
(-0.891819 0.95908 -1.66132e-16)
(-0.131526 0.609867 3.50419e-16)
(-1.46554 1.00944 0)
(1.44446 0.265569 -8.54185e-17)
(1.21267 -0.392801 3.26282e-16)
(1.3416 0.071774 -3.42409e-16)
(1.46764 -0.408067 -6.09653e-17)
(1.0071 0.291243 4.99611e-17)
(0.921999 -0.00295413 5.19644e-16)
(-0.174581 -0.430588 1.68429e-16)
(0.882968 -0.012479 0)
(0.919093 -0.21001 1.8486e-17)
(1.04769 -0.622297 0)
(2.14926 -0.613255 1.75018e-16)
(0.577975 0.351272 -6.81941e-16)
(0.31394 0.676153 4.77232e-17)
(0.777753 -0.558998 9.33555e-18)
(2.85131 0.16306 -1.0274e-16)
(0.708938 1.52895 3.28122e-16)
(0.864967 1.45188 4.41712e-16)
(2.37528 0.144901 -3.9475e-16)
(0.275812 0.520079 0)
(1.96675 0.857008 1.8736e-16)
(0.701486 -0.765427 0)
(1.67321 0.403124 1.18126e-17)
(1.17117 -0.423193 0)
(1.33097 -1.01208 1.30646e-17)
(1.21141 0.120643 -1.58294e-16)
(0.980515 -0.203841 -2.59129e-19)
(0.320648 0.242957 -2.07306e-17)
(1.14897 -0.527273 0)
(0.881146 -1.01184 0)
(0.781375 0.127717 1.72168e-16)
(0.0197834 -0.357524 -3.71514e-16)
(1.00922 0.494385 -9.45906e-17)
(0.926105 -0.867974 0)
(1.21167 -0.62583 4.91281e-16)
(1.05443 0.878667 6.92046e-17)
(1.05775 -0.449646 7.40794e-17)
(1.71868 0.718798 0)
(0.1502 -2.17405 -3.88152e-16)
(0.360512 -2.24234 -5.21356e-16)
(-0.340667 0.443114 0)
(-0.455955 -0.38554 6.61484e-17)
(-0.143041 0.316203 -3.1797e-16)
(0.754056 0.0238139 -2.59139e-16)
(0.234085 0.520303 -1.12454e-16)
(2.82386 -0.526519 9.09907e-17)
(0.357374 -0.108537 0)
(1.76184 -0.2244 5.65814e-17)
(1.18738 -0.179081 3.19595e-16)
(1.22281 0.0844821 3.02068e-16)
(1.40335 0.182392 -3.16532e-18)
(0.50464 0.520046 2.72728e-16)
(0.248399 -0.29799 1.54249e-16)
(1.84283 -0.279881 -4.75871e-16)
(0.79943 0.00360955 5.62259e-16)
(0.656448 -0.150271 0)
(0.25305 0.708195 -1.56818e-16)
(1.98307 0.4678 0)
(0.444991 0.664164 0)
(1.5394 0.933692 -3.08056e-17)
(1.35804 0.525216 0)
(1.40636 0.0801993 3.35316e-16)
(2.71143 0.141417 0)
(1.39148 -0.0811978 0)
(2.8098 0.00491747 3.23177e-17)
(0.565587 -0.113948 -6.75173e-17)
(-0.931158 0.824748 0)
(0.78085 -0.254487 1.01101e-16)
(0.19469 0.374568 2.41552e-17)
(0.50369 0.0997059 -1.70002e-16)
(1.02566 -0.420789 -6.39282e-16)
(1.16166 -0.293022 0)
(1.98582 0.191631 2.02294e-16)
(0.431404 -0.294541 0)
(1.34 -0.462617 7.88299e-17)
(1.23399 0.448759 0)
(-0.233015 -0.0417421 -3.89475e-17)
(0.640028 0.0049374 0)
(0.176093 0.148688 0)
(0.306602 0.0105743 4.93318e-16)
(1.74986 -0.649273 -2.04127e-16)
(-1.36639 1.97684 -3.98386e-17)
(1.74765 -0.129379 1.31239e-16)
(0.00405949 -0.626564 0)
(-0.0519683 0.2845 1.62899e-16)
(2.72092 -0.315602 1.39564e-16)
(1.08347 0.166587 -3.41143e-18)
(1.27903 -0.325325 0)
(0.34717 0.124224 0)
(0.0102013 0.120916 1.51017e-17)
(0.472302 -0.240264 1.61755e-16)
(0.985029 0.245657 1.35626e-16)
(0.688901 -1.42232 -2.30805e-17)
(1.21264 -0.399518 -3.67762e-17)
(1.05019 -0.193498 3.66164e-16)
(1.34617 0.48742 0)
(0.356233 1.00392 0)
(0.79911 -0.00378403 1.42918e-16)
(1.49603 0.0140757 4.81525e-17)
(0.74919 0.419106 1.55508e-16)
(0.930373 0.305036 3.90456e-16)
(1.10601 0.165878 0)
(0.0121482 -0.775733 0)
(-0.0244065 -0.614517 2.29997e-16)
(1.26238 -0.433388 0)
(1.16731 0.347103 0)
(0.87135 -0.978118 -1.50567e-16)
(1.74776 0.16079 -1.54773e-16)
(0.522394 -0.21682 -3.45251e-16)
(0.557467 -0.148269 0)
(1.62135 0.192792 5.95594e-16)
(1.14504 -0.478804 -7.78637e-16)
(-0.387173 -0.841383 -1.30191e-16)
(2.22204 0.019388 -1.95599e-16)
(1.67414 0.512548 1.65685e-16)
(0.828433 0.259098 -1.72012e-16)
(0.493474 0.377865 -3.30969e-17)
(1.09011 0.154615 -9.81021e-18)
(0.683652 1.74099 -4.73511e-18)
(-0.742163 -0.0450353 0)
(0.348558 -0.359085 -1.14022e-16)
(1.64505 -0.16843 -5.70806e-17)
(1.1924 -0.170296 -1.78867e-16)
(1.18883 0.382709 0)
(1.17113 0.0194968 4.82306e-16)
(1.1242 -0.139265 0)
(1.2809 -0.0553926 0)
(1.47911 0.235633 2.52597e-18)
(-0.984387 0.185139 6.62477e-18)
(1.26076 0.142675 -3.4887e-16)
(0.204187 0.18958 3.10413e-16)
(1.07236 -0.103825 1.65868e-16)
(1.0524 0.614494 7.46368e-18)
(1.7802 0.00441671 1.6035e-16)
(1.41357 0.559291 2.6343e-17)
(0.918439 2.391 -4.1027e-17)
(0.930129 -0.695483 -9.83757e-17)
(0.428762 -0.156634 -2.98045e-16)
(-1.02389 -0.467999 4.12919e-17)
(0.975516 -0.103369 0)
(1.59501 -0.31069 -1.99401e-17)
(1.10175 0.082718 1.98081e-16)
(0.912743 -0.371665 -1.48087e-16)
(-0.0112695 0.591364 4.74584e-17)
(-0.600508 -0.316743 0)
(-0.324668 -0.166516 -8.3623e-17)
(2.15253 0.407558 0)
(3.30381 1.00972 0)
(-0.241984 0.384475 8.02019e-17)
(0.140856 0.0785648 -1.18162e-16)
(2.13482 0.857053 -1.2256e-17)
(0.888403 -0.00079263 0)
(1.41339 -1.77515 7.47819e-18)
(1.98627 -0.699088 1.42838e-16)
(1.67084 0.416256 -1.41763e-16)
(1.02841 0.646532 3.41164e-17)
(0.109155 0.482662 -3.61442e-17)
(-0.0261746 -0.784857 5.4967e-17)
(0.426117 -0.0948832 2.52711e-16)
(1.01234 0.421863 -1.13497e-16)
(0.44499 -0.124039 1.88518e-17)
(0.579591 0.264506 0)
(-0.302695 -0.132416 0)
(0.62149 -0.0456363 0)
(-0.648584 -0.120987 5.99959e-16)
(-2.40716 0.499397 -5.99858e-19)
(-2.13457 -0.601029 1.91175e-16)
(-1.09471 0.126757 -1.59334e-16)
(0.234468 0.721224 0)
(1.83233 -0.280608 2.34352e-16)
(-1.3249 -0.649239 0)
(1.25736 -0.177978 0)
(1.47469 -0.305884 0)
(0.382829 -0.413728 -8.12734e-17)
(1.5381 -0.933274 1.57668e-16)
(0.238686 -0.681186 9.42493e-17)
(3.50293 1.38607 0)
(1.50505 -0.0179634 -2.5091e-16)
(1.04717 -0.494102 -3.81604e-17)
(0.128825 -1.12441 -2.42018e-16)
(1.46378 -0.398242 -6.32254e-17)
(2.08149 0.193435 -1.1068e-16)
(2.74842 1.07303 0)
(1.81093 -0.705478 4.95605e-17)
(0.638996 -0.316069 0)
(0.602293 0.346978 -3.19439e-16)
(0.752602 0.3399 0)
(0.91075 0.644727 -3.66343e-16)
(0.217888 -0.115277 -4.73721e-17)
(-0.312543 1.38278 0)
(0.271923 0.556458 1.14696e-16)
(2.21208 1.23462 4.30341e-16)
(1.21584 -0.0290028 0)
(1.69971 0.0440769 1.30147e-18)
(1.20255 0.0431625 3.07835e-16)
(0.817081 0.311926 0)
(1.46513 -0.819636 1.82378e-17)
(1.27453 0.0434062 -1.92663e-16)
(1.12622 -1.47161 -1.27849e-16)
(1.24168 0.837889 -1.51427e-17)
(1.3385 -0.0953274 1.82845e-16)
(1.52916 -0.353902 2.84553e-16)
(1.25253 -0.384555 -3.12031e-16)
(1.92564 -0.149529 3.1853e-17)
(-0.845411 -0.355913 1.65319e-16)
(2.36773 -0.417871 0)
(0.636237 -0.895427 0)
(0.433029 -0.266991 8.2821e-17)
(0.560736 -0.915173 -4.14908e-17)
(0.554103 0.282943 0)
(0.723376 1.5969 3.97553e-17)
(1.05848 0.213577 -2.53442e-17)
(0.2704 -0.605818 5.26962e-17)
(0.720043 -0.0455992 0)
(2.30866 -0.501233 5.22039e-17)
(0.54878 -0.378307 -2.46462e-16)
(1.01016 0.0562424 -4.18418e-17)
(1.04303 -0.277794 0)
(1.02302 -0.00445646 0)
(0.794298 0.487865 5.15101e-18)
(0.0493532 -0.446654 1.61009e-16)
(0.656504 0.0356374 2.34219e-17)
(0.603628 -0.0232242 -1.79234e-16)
(-0.334327 -0.233402 -5.57902e-17)
(-0.885662 0.683646 8.79809e-17)
(1.29311 0.273789 7.44968e-17)
(0.785333 -0.550913 -9.51968e-17)
(1.93258 0.0668551 0)
(2.64572 0.413123 1.78791e-17)
(-1.9973 -0.280162 2.49256e-17)
(-1.16783 -0.372169 1.78331e-16)
(0.799641 -0.127342 1.29302e-17)
(0.552431 -0.0648205 -2.64281e-16)
(0.596258 0.144471 4.47825e-17)
(-0.694903 0.506093 0)
(0.549987 0.517143 -2.64263e-17)
(0.87656 1.98492 -6.72141e-17)
(0.842478 0.394893 0)
(0.126903 -0.505883 1.00105e-16)
(1.64793 -0.499115 -2.7918e-16)
(1.40306 0.70016 3.38599e-17)
(2.04183 -0.37833 7.33002e-17)
(1.35349 0.0160496 -2.39199e-16)
(0.110134 0.123166 -1.9581e-17)
(1.23266 0.391994 0)
(1.02748 0.0147271 0)
(0.412443 -2.00506 -2.94478e-17)
(0.258406 -0.603892 0)
(-0.817538 0.971211 0)
(0.940607 -0.322888 0)
(0.52753 -1.15671 3.33015e-17)
(1.23863 -0.319289 -3.28193e-16)
(-0.142323 0.382783 -9.40291e-18)
(1.57844 -0.869183 0)
(1.64428 -0.113529 0)
(0.805149 0.0962985 0)
(-0.739442 0.37577 -1.28037e-17)
(0.885053 -0.00491543 3.4227e-16)
(-1.00867 0.0723751 0)
(0.476588 -0.0654863 -7.83488e-17)
(-1.21809 0.147286 -1.84261e-16)
(-1.17261 0.431275 1.987e-16)
(0.207804 -0.658977 3.53629e-17)
(0.687387 -0.139824 0)
(-1.26905 0.294237 0)
(0.602371 -0.989558 -1.07426e-17)
(0.688323 -0.174816 2.99616e-16)
(1.88374 0.72876 2.08655e-16)
(1.7806 -0.375999 2.49577e-16)
(1.36725 -0.42824 -1.63482e-16)
(0.571857 -0.411199 0)
(-2.36419 -0.680208 0)
(0.854407 0.0303806 0)
(0.772933 -0.0223148 8.63802e-19)
(-2.78367 0.937908 -5.02629e-17)
(-0.447555 1.69419 0)
(0.137955 -1.17694 3.14129e-16)
(0.631639 -1.05729 -1.14476e-16)
(0.915185 0.604903 0)
(1.17521 -0.622669 -3.5401e-16)
(0.998803 1.01527 1.59527e-16)
(-0.534762 -1.61243 -9.18057e-17)
(0.950415 0.349939 -7.32921e-17)
(0.825823 -0.571456 -3.04456e-17)
(1.22682 -0.0245418 8.48025e-17)
(1.50203 -0.170431 -1.72372e-17)
(0.921345 1.14402 0)
(0.860954 -1.11936 -3.20959e-17)
(1.02664 -0.0154496 -3.45171e-16)
(0.968435 -0.0422647 0)
(1.29292 -0.180761 0)
(0.909628 0.461924 1.46401e-16)
(0.765949 -0.768082 1.39856e-17)
(1.5602 -0.740487 0)
(1.01005 -0.460512 7.72501e-17)
(0.889233 0.803213 -1.83836e-17)
(2.79384 -0.847431 0)
(-0.303784 -0.275186 0)
(0.540646 0.0737503 -1.75719e-16)
(-0.276735 0.294093 1.3505e-16)
(0.501683 -0.0909336 0)
(2.01636 0.418901 9.63082e-17)
(2.44835 -0.452741 3.99803e-17)
(0.050354 -0.187869 1.13983e-16)
(1.40794 -0.80421 -1.54469e-16)
(0.414195 0.871674 -2.08425e-16)
(1.60804 -1.65166 0)
(2.48928 0.905829 0)
(1.91518 -1.45335 1.58257e-16)
(1.14838 -0.892452 1.60054e-16)
(1.51445 1.70329 0)
(1.42844 -1.13298 -2.8655e-16)
(0.541264 -0.665123 1.71246e-17)
(1.19307 -0.0738776 4.33836e-16)
(0.528307 0.505657 5.11338e-18)
(1.17667 0.0243713 0)
(0.968401 0.308089 -1.35614e-16)
(0.350932 -0.685757 -2.80522e-17)
(-2.33766 -0.0319955 3.80588e-17)
(0.398001 0.354072 0)
(1.13445 -0.0645327 3.74174e-16)
(1.01172 0.307199 -1.26089e-18)
(1.93134 -0.0663489 -4.3626e-17)
(1.24721 -0.108577 -2.32809e-16)
(-0.325599 0.333992 2.12633e-16)
(2.13784 -0.384402 4.20578e-17)
(1.69375 -0.108356 0)
(-1.7384 -1.58471 -4.7683e-17)
(1.60648 -0.17784 -2.76651e-16)
(-0.182493 0.134381 -2.14965e-16)
(-0.24084 -0.968613 4.34307e-16)
(1.52541 -1.39754 2.92163e-16)
(0.760454 0.259201 0)
(0.471104 0.225873 6.82071e-17)
(1.99463 -0.652532 3.38159e-18)
(0.35288 -0.564733 -2.61948e-16)
(1.19024 0.037603 -4.1227e-17)
(2.71067 0.81148 0)
(0.125679 -1.03607 0)
(1.43215 0.444374 0)
(0.0286561 -1.29515 4.15316e-17)
(0.308443 0.668786 0)
(0.242444 -1.21588 4.28365e-16)
(0.110107 0.697006 -2.96782e-16)
(1.19628 0.334684 1.20722e-16)
(0.982301 0.128 1.71116e-16)
(1.20441 0.393498 -1.25711e-17)
(2.31652 0.900908 1.84632e-16)
(2.14547 0.432789 -1.92581e-16)
(1.9782 -1.09054 1.35176e-18)
(1.13955 -0.0211137 -8.27825e-17)
(1.54458 -0.0280671 3.85692e-17)
(0.784128 -0.186092 0)
(-0.319612 0.622403 0)
(1.226 -0.250325 3.16094e-16)
(1.49875 -0.833839 0)
(0.165978 -1.10883 0)
(0.505636 -1.81641 -2.26318e-17)
(1.42632 0.368441 0)
(0.943316 -1.34262 -4.96937e-17)
(1.04749 -0.603311 -2.53012e-16)
(-0.0375748 0.0596358 2.35314e-16)
(0.690349 -0.728719 0)
(0.829447 -0.2935 1.75167e-18)
(0.868156 -0.713473 5.49429e-17)
(1.03774 -0.356222 -8.82754e-17)
(-0.237214 -0.681571 -4.59227e-16)
(-0.0754128 -0.43575 0)
(0.804305 -0.184371 -3.50346e-16)
(0.290597 1.96855 -5.0749e-16)
(0.179372 2.07015 0)
(1.67101 0.401216 -7.55103e-17)
(1.29972 -0.241887 0)
(-0.482818 -1.03004 -9.73171e-17)
(0.793816 0.520367 0)
(-1.39902 -0.215184 4.36711e-19)
(0.165428 0.578654 1.8182e-16)
(-0.679004 0.615833 -5.03648e-17)
(1.88989 -0.695251 0)
(1.45871 -0.289483 8.91647e-17)
(1.84351 -0.271394 -1.62455e-16)
(1.89355 0.445938 0)
(0.121167 -1.55128 -1.04051e-18)
(1.88508 -0.275583 -2.30836e-18)
(0.134527 0.143708 0)
(1.26584 -0.336091 0)
(0.0137063 0.881644 -3.05594e-16)
(0.288903 -0.120173 0)
(0.912915 -0.194738 0)
(1.44835 0.203119 0)
(2.98729 -0.0318653 -9.46625e-17)
(0.868686 -0.0254175 -1.48066e-16)
(0.385485 -1.18962 9.51647e-18)
(1.24476 0.95852 -4.45976e-17)
(0.147468 0.502772 0)
(-0.282508 -0.598155 -7.57249e-17)
(0.695501 0.661087 0)
(0.692409 -0.0793613 -3.5423e-16)
(0.467089 0.216117 0)
(1.10863 0.833932 0)
(1.16399 -0.853035 0)
(0.942668 -0.0701776 -2.06973e-16)
(0.943024 0.045714 -2.81468e-16)
(1.75847 0.336981 0)
(-1.09529 0.102132 6.42111e-17)
(0.378073 -0.727124 1.01014e-16)
(0.597822 -0.102966 2.60011e-16)
(-0.112678 -0.108486 -2.1773e-17)
(0.0999495 0.33701 0)
(1.9488 0.133104 0)
(2.41644 -0.172802 6.35473e-17)
(0.424358 0.392891 1.89269e-16)
(1.4108 0.279064 8.22392e-17)
(1.07293 0.253451 -3.42197e-16)
(1.09746 0.84427 1.673e-16)
(1.70071 -0.464075 0)
(1.10556 0.7078 -1.38712e-19)
(1.81522 -0.691589 -1.68767e-16)
(1.21919 0.520061 -3.96311e-16)
(-0.415585 0.540499 -1.37555e-16)
(0.077657 -0.069276 0)
(0.551491 -1.3893 -6.71048e-17)
(0.693974 -1.27176 0)
(0.865326 -0.210492 9.08268e-17)
(1.14592 0.772099 -6.12195e-17)
(1.06777 -0.654894 3.63423e-17)
(0.42823 -1.67704 -1.34363e-16)
(1.00588 0.110042 3.24732e-17)
(0.217714 -0.071249 4.71505e-17)
(1.63832 0.202365 0)
(1.20318 0.255298 2.45823e-16)
(0.978798 -1.47414 0)
(0.25356 0.255052 5.13191e-16)
(0.136515 -0.360576 -1.70135e-16)
(0.332555 -0.422189 0)
(1.30441 0.0188996 0)
(-0.875908 0.829962 2.23698e-16)
(0.490994 -0.330441 -1.73695e-16)
(1.30233 0.295119 7.19363e-17)
(0.0472357 -0.305798 6.55087e-16)
(1.24049 -0.0108543 0)
(0.967427 1.32926 0)
(1.72147 0.089287 0)
(1.9287 -1.05594 -9.75299e-17)
(0.313879 0.243551 3.44761e-17)
(-0.0552903 -1.29257 -2.81201e-18)
(0.0924783 0.95355 1.3412e-16)
(0.683445 0.183799 0)
(0.11285 -1.19792 0)
(1.01744 0.533575 -9.15549e-17)
(1.02524 -0.205891 4.90407e-17)
(0.167165 2.1748 9.16958e-17)
(0.12166 0.844914 0)
(0.839274 -0.47558 -8.94661e-17)
(0.608378 -1.82333 -5.86193e-17)
(0.875259 0.349205 -1.16819e-16)
(0.0374123 0.899177 0)
(0.723571 -0.41828 1.81725e-16)
(0.798903 0.293097 -1.70109e-16)
(-0.233351 -0.956562 3.11928e-17)
(0.471562 0.692315 3.90182e-17)
(0.384695 -0.232893 0)
(0.870772 -0.0510392 0)
(1.00918 -0.0950295 3.1851e-17)
(0.496768 0.0684821 2.31181e-16)
(1.17324 -0.922878 2.32389e-18)
(0.810511 -0.157597 1.10257e-17)
(0.36843 -0.191262 -1.15657e-16)
(1.53212 0.335951 0)
(1.46133 -0.461257 -1.4563e-16)
(1.37189 -0.0501141 -1.30324e-18)
(1.25814 0.552422 0)
(1.84228 1.39273 -4.81828e-17)
(0.616195 -0.988858 -2.2403e-16)
(0.665911 -0.60338 2.0621e-16)
(1.50814 -0.14323 1.92527e-16)
(2.29734 -0.0833146 0)
(2.3714 0.0409299 0)
(1.94061 -0.143116 -9.67633e-17)
(-1.4671 0.106734 0)
(-1.08662 -0.411938 -1.22587e-16)
(0.320599 -0.336864 0)
(0.712775 -0.0048512 0)
(-0.251523 0.0729205 -3.41693e-16)
(-0.252859 0.605645 -2.58563e-17)
(0.263664 0.230154 1.71893e-16)
(1.2853 0.811854 -2.30506e-16)
(1.24839 0.471713 -7.09894e-17)
(-0.847063 -0.207755 1.56616e-16)
(-1.33547 -0.290637 -1.39957e-16)
(1.66245 -0.119593 1.15146e-16)
(1.439 -0.047931 1.18337e-16)
(-0.826719 -0.266832 -5.93404e-16)
(-1.36538 0.367331 -3.56254e-17)
(-0.836632 0.926807 5.61781e-16)
(0.88526 0.695279 9.91635e-18)
(0.351236 -0.243771 9.35138e-17)
(1.70592 1.1969 0)
(1.15406 0.64411 0)
(-0.184364 -1.48814 1.68495e-16)
(0.118613 -1.88455 -4.70352e-17)
(0.225279 0.403633 0)
(0.491932 -1.14727 2.55446e-16)
(1.41876 -0.202496 -8.24679e-17)
(1.56065 0.375663 1.97753e-17)
(1.29506 0.222054 0)
(1.47555 -0.405943 -1.50335e-17)
(0.968218 1.15025 -9.72647e-17)
(1.75625 -0.0197718 1.62501e-18)
(-0.59272 -0.109012 -2.59076e-16)
(0.385323 0.938349 -2.11993e-16)
(1.35467 1.0143 0)
(0.695645 -0.561866 -6.26884e-19)
(0.179585 0.104986 -1.47615e-16)
(0.937533 0.00820364 -1.94796e-16)
(-0.427112 1.12213 -9.10061e-17)
(1.49074 0.765815 -2.55615e-16)
(0.297815 -0.597158 3.09116e-16)
(2.25856 -0.523777 6.96269e-18)
(0.0966688 -0.373555 -1.89224e-16)
(-0.031868 0.267209 3.77372e-17)
(0.784296 0.0508241 1.97981e-16)
(0.955863 -0.0124374 -4.89548e-17)
(0.369311 -0.189354 1.36634e-16)
(0.465978 -0.0156925 1.22337e-16)
(0.773368 0.153293 0)
(1.5928 0.347359 0)
(0.252219 0.867612 5.15712e-17)
(0.794078 0.454266 0)
(-0.385044 -0.453885 -3.13975e-16)
(1.11979 -0.0122838 1.90627e-16)
(3.13668 0.166644 -4.89714e-17)
(0.914503 0.548625 -1.6678e-16)
(0.871347 -0.798725 -6.41295e-17)
(0.917643 0.80851 0)
(1.08419 -0.630258 0)
(1.82743 0.018919 0)
(0.934619 0.0688308 0)
(2.52178 0.805527 -2.09159e-18)
(0.127362 -0.134369 0)
(-0.438079 0.325181 -8.7139e-17)
(-0.151707 0.329327 3.93825e-17)
(-0.0921891 0.359886 -1.72997e-16)
(1.32295 0.630186 0)
(0.968906 -0.0391806 2.53375e-16)
(0.97069 -0.172905 0)
(1.75485 -0.911412 -5.49109e-17)
(-0.801607 0.691487 -3.12522e-17)
(2.02152 -0.663123 -1.33943e-17)
(1.06063 -0.172862 8.29228e-17)
(1.31606 -0.428478 7.85814e-17)
(1.36724 0.459909 5.63967e-17)
(-0.51233 -2.46188 -6.85893e-17)
(2.19901 0.311411 0)
(-0.224631 0.459427 0)
(-1.25093 -0.604614 3.03788e-17)
(2.14817 0.484771 0)
(1.70731 -0.364664 -1.57393e-16)
(3.04348 1.00313 3.46297e-17)
(0.653809 -0.817469 -2.32265e-17)
(1.57144 0.377567 2.02791e-17)
(1.41224 -0.493832 1.93178e-17)
(0.298134 -0.471343 -9.74648e-17)
(1.20782 0.505713 -1.50617e-16)
(-1.00431 0.112781 -1.22593e-16)
(2.3083 0.520486 4.87204e-17)
(0.377535 0.0990485 -2.67613e-16)
(-0.285666 -0.0849698 0)
(1.91006 -0.525902 -9.83625e-17)
(0.340175 -1.29654 1.35331e-17)
(0.469953 0.541257 2.47412e-16)
(-1.84713 2.03189 -4.33072e-16)
(-0.111767 0.902286 0)
(2.25206 -1.45099 -3.2878e-16)
(-0.213891 0.634081 0)
(-0.899937 -0.0390169 -3.06502e-16)
(-0.868006 0.0223763 9.92388e-17)
(-0.229359 -0.00132804 0)
(-0.136624 0.196233 1.05368e-16)
(0.533712 -0.561129 -3.66456e-17)
(0.32527 -0.074363 0)
(-0.197187 -0.361766 0)
(-0.117422 1.11293 -2.36927e-16)
(-0.807219 -1.00827 -2.37749e-17)
(1.94471 -0.241846 9.22699e-17)
(0.862639 -0.57523 -3.70982e-16)
(-2.0158 -0.483635 0)
(1.05307 -0.440344 -1.72476e-16)
(-0.260003 0.506484 0)
(0.932985 -0.74909 9.3338e-17)
(0.742618 0.438991 -6.4473e-18)
(1.80448 0.277319 -2.20197e-16)
(1.607 -0.826685 1.89302e-16)
(1.34528 -0.623639 6.44391e-17)
(-0.565982 -0.488064 0)
(-0.0342901 -0.622495 0)
(1.2574 -0.423633 1.35949e-16)
(-0.29012 -0.434924 -2.99817e-16)
(0.263569 -0.117872 1.22957e-16)
(0.314503 -0.81391 1.77904e-16)
(0.812657 0.0605698 0)
(1.13898 0.359469 0)
(0.314716 -0.0883362 1.47889e-16)
(1.0026 0.291951 -1.36016e-16)
(0.781811 -1.48304 0)
(0.741689 0.208543 -3.68941e-17)
(1.20276 -0.52538 0)
(0.952513 0.0162534 -1.4865e-16)
(1.62754 0.714179 -4.81943e-17)
(1.26888 0.23259 8.37388e-17)