/*--------------------------------*- C++ -*----------------------------------*\
  =========                 |
  \\      /  F ield         | OpenFOAM: The Open Source CFD Toolbox
   \\    /   O peration     | Website:  https://openfoam.org
    \\  /    A nd           | Version:  7
     \\/     M anipulation  |
\*---------------------------------------------------------------------------*/
FoamFile
{
    version     2.0;
    format      ascii;
    class       volScalarField;
    location    "0.05";
    object      p;
}
// * * * * * * * * * * * * * * * * * * * * * * * * * * * * * * * * * * * * * //

dimensions      [0 2 -2 0 0 0 0];

internalField   nonuniform List<scalar> 
2016
(
-3.40279
-3.38988
-1.02328
-0.992618
-3.08396
-2.83919
0.131615
-2.99437
-3.2057
-2.98142
-3.04186
0.298723
0.372714
-3.02329
-3.07042
-0.451032
-0.453446
-3.15207
1.4041
1.50423
-3.21077
0.4779
0.443536
-2.5358
-2.64726
-2.71337
-1.09642
-0.79332
-3.06865
-2.93827
-3.21832
-0.104736
-0.879961
-2.66769
-2.70521
0.280561
0.287769
-2.96065
-2.69499
-0.510456
0.818217
0.895009
-3.0553
-3.13368
-3.3697
-2.56981
-2.41182
-0.0652397
0.0318581
-2.86404
-0.420513
-0.562854
-0.338971
-0.337314
-2.5269
-5.48868
0.164803
-1.2906
0.231045
0.255612
-2.5017
-2.6534
-0.205699
0.162124
-3.29656
-2.68945
-0.974451
-3.05092
-3.28022
1.32556
1.49535
-3.01755
1.51444
1.72356
-2.40721
-3.29042
-3.28325
-3.35476
-3.38425
-2.84802
-1.30635
-1.45271
-0.137514
-3.47433
-2.33513
-1.21291
-2.26848
-0.982199
-2.3463
-3.14192
-3.37827
1.01803
1.09974
-3.45312
-3.26065
-1.30457
-2.417
-2.71343
-2.50026
0.44483
0.46777
-1.84553
-3.45221
-3.13602
0.154154
0.157001
-3.11925
-2.4332
-0.876487
1.30543
1.20405
-3.32987
-3.33447
-0.956767
-3.35164
-3.20576
-3.31138
-3.33258
0.133971
-2.97292
-3.35616
-3.37168
-3.11367
-2.1996
-2.9145
-2.80038
-3.39048
-3.17907
-1.3609
-2.62884
-3.27913
0.109377
-0.00866391
0.0490046
-2.73401
-0.386476
0.121188
-1.91333
-1.68039
-2.33873
0.27712
0.328797
-3.10967
-3.45322
-3.37705
-3.3423
-0.588613
-0.130266
-0.382267
-2.59793
-2.87314
-2.6297
-0.510412
-0.588959
-2.95503
-3.28538
-3.1187
-1.15277
-3.42707
-3.31462
1.47973
1.37823
-2.80546
-3.21933
-3.24455
-3.30562
-0.55269
-0.577687
-0.103416
-0.0897909
-0.0731419
-0.0506905
-1.52506
-3.1142
-1.49346
0.15146
0.175924
-1.22377
-3.02719
-2.90337
1.29915
1.16928
-3.3708
-3.39794
-0.510167
-2.36358
-3.41707
-0.254337
-0.447885
-0.481699
-2.25093
-2.27348
-3.28042
1.61126
1.50472
1.24342
1.13752
-3.38105
-3.07405
-3.36945
-3.32841
-2.57838
-2.67397
-3.44896
-0.169444
-3.06065
-2.64633
-0.0480818
-3.00313
-3.35248
-3.35638
-3.42727
0.662844
0.75153
-2.65837
0.473732
0.444934
-2.50817
-1.97411
-2.74794
-2.74426
-2.9271
-3.31383
-3.29335
-3.36785
-3.36525
-0.0626541
0.272236
0.322065
-3.39217
-0.797033
-3.3516
-3.32425
-3.17016
-2.96616
-3.13803
0.174213
0.159724
0.182151
0.165558
-0.781325
-0.713425
-0.615393
-3.0263
0.0121551
0.10622
0.135907
-3.44277
0.245591
0.246172
-2.74665
-2.49452
-3.22001
-3.22027
0.310212
0.265639
-1.0916
-0.243679
-0.238067
-3.00299
-3.06853
-0.0449553
-1.80943
0.154011
-3.25412
-0.721968
-3.19898
-3.14613
-3.41289
-3.3858
-1.10584
-3.18738
-3.2338
0.00278019
-0.0315751
-1.77717
-2.51563
-3.01795
-0.713985
2.40423
-3.39627
-3.42223
-2.75612
-1.39328
-3.18741
0.468973
-1.46558
-1.71746
-3.18287
-3.20467
-3.28295
-4.05067
-3.30307
-3.43606
-3.37025
-2.54786
-2.72253
0.332253
0.35431
-1.69236
-3.37268
-2.64271
-3.26001
-0.579017
-3.38435
-3.42029
-3.33201
-3.42331
-1.14812
-3.16651
-2.41341
-3.43008
-3.49799
-3.08027
0.075298
0.0192462
-3.17832
-2.27931
-2.46495
0.00139001
-0.154208
-3.40394
-1.4438
-2.6702
-3.17162
1.84956
1.74821
-2.73717
-3.278
-2.72925
-3.33299
-3.37521
-3.33566
-3.14464
-2.52624
-2.89664
-3.15167
-3.35114
0.253019
-3.31904
-2.84299
-3.41152
-3.37755
-3.19284
-3.16917
-3.2947
-3.31619
-0.774389
-2.50983
-2.67684
-3.38055
1.12341
1.24661
-2.97374
-3.35007
-3.36694
-3.19022
-2.3812
-2.39824
-3.36203
0.57911
0.631529
-3.20696
-1.41367
-3.0263
0.91137
0.992723
-0.0359801
-3.41147
-0.127211
0.234382
0.17833
0.265154
0.299638
0.418864
-2.79748
-2.49368
-3.34559
-3.37526
-2.58185
-2.57848
-3.37535
-3.25014
-3.38827
-2.13662
-3.29519
-3.41212
-3.33056
-3.30433
-3.33467
-3.06391
-3.31162
-2.58264
-3.27237
-3.439
1.17898
1.05501
-2.7822
-3.26074
-3.51426
-3.1233
-2.81085
0.149252
-1.91686
1.68298
-3.29357
-3.1561
-3.25607
-3.43445
-3.42524
-2.89685
-2.91661
-3.15591
-3.32347
-3.03451
0.580339
0.632495
-0.865848
-2.30118
-3.31786
-3.15913
-3.35946
-3.4469
-2.82532
-0.017251
-3.30866
-2.62815
-3.38197
-3.42856
-3.3329
0.0618913
2.12708
-3.04836
-3.20684
-2.77864
-0.952048
-2.15859
-3.288
-3.44274
-0.593656
-0.234153
-3.48756
0.845523
0.882522
-2.3465
1.80035
-2.8152
-2.94262
-2.14223
0.368265
0.39525
-0.109091
-3.22167
-3.18735
-2.90055
-2.71978
-1.18642
-2.60646
-0.580005
-0.431938
-3.04669
2.72025
-0.170785
-0.169763
-3.43132
-3.03569
-0.0376477
-0.0980797
-3.28575
-3.31954
-3.01185
-2.69282
-3.45345
-3.34034
0.0582549
-3.42036
-3.33523
-2.71714
-3.33297
0.598001
0.546433
-3.34739
-3.46255
-3.3736
2.61927
-3.43384
-3.18533
-3.38559
-3.30362
-3.45293
-3.36088
-3.47509
-3.48709
-3.42522
-3.34411
-3.40461
-1.04117
0.271419
0.336105
-3.29379
-1.89831
-2.09343
-0.425884
-2.90186
-2.58483
-3.40984
-3.06028
-1.53205
-3.05919
-3.05558
-0.995921
-0.892403
-3.28926
-3.24582
-0.082136
0.0137175
-3.09892
-2.30769
0.45162
-3.35137
-3.32391
-3.31946
-1.33416
-2.63619
-3.39048
-0.281389
-0.313151
-2.58342
-3.01205
0.168949
0.388589
-2.22365
0.407229
0.28502
-2.60167
-2.60083
-2.26017
-0.836298
-3.09762
-3.38384
-3.42017
-3.22565
-3.2378
-3.37744
-3.3421
-2.63575
0.370923
-2.96224
-3.43173
-3.34145
-3.14959
0.24996
0.223515
-3.33771
-2.36794
-2.87796
-2.98314
0.316882
0.133543
-1.29348
-3.40836
-1.083
0.00742502
-3.11356
-3.26817
0.348182
-1.67354
-1.9505
0.262793
-2.83491
0.294065
0.354547
0.781823
0.850627
-2.91333
-1.62405
-3.33887
-3.41108
-3.29225
0.318354
-2.97471
-2.24333
-1.01442
-0.828058
-2.56462
-3.30513
0.166562
-3.38971
-3.42486
-2.3303
-0.211972
-1.32413
-2.53814
-1.29457
-3.27869
-3.38198
0.201759
0.143265
-1.13451
-2.86405
0.228487
0.191603
-3.46025
-2.80373
-3.30185
-3.42389
-1.30563
-2.04508
-3.34367
-2.92179
-3.43719
-2.73892
-3.30349
-3.2155
-3.36273
-2.60979
-2.67168
0.634401
0.585375
-2.26541
-2.79785
-3.33865
-3.34145
0.692026
-1.04474
-2.50548
-3.08141
-3.36614
-1.30614
0.0605839
-3.33005
-2.50133
-2.57752
0.290321
-0.0458357
-2.48213
-2.62083
-1.02532
-1.24757
0.174163
0.173698
-2.7363
-3.13094
-2.98982
-2.78865
-3.42232
-3.3434
-2.86466
-2.72795
-1.5454
-1.8988
-3.37227
-3.35876
-0.112201
-3.59522
1.69513
1.58687
-0.174148
-0.177873
-1.95139
-2.94435
-3.1836
-3.19835
-3.3265
-3.42309
0.756508
0.822151
0.0937752
-3.4205
-0.970787
0.678807
0.712363
-1.38499
0.597667
0.636278
-3.18737
-3.34886
-3.45875
-2.31105
-2.21543
-3.12484
-3.12398
-3.36472
-3.35461
-3.41692
-3.14628
-3.22268
0.915851
0.99542
-3.3394
-3.33978
1.82173
-1.14308
1.72526
-3.02342
-0.117296
-3.3918
0.0841202
-3.22046
-3.26607
-1.78796
-3.06096
-3.31389
1.29962
-3.09549
-3.15234
-1.52118
-3.28277
-0.877827
-3.39528
0.0249786
-0.00898544
-2.07639
0.191982
-0.626866
-1.75029
-2.82911
-3.29272
-2.20537
1.12871
1.13451
1.23124
-3.09511
-3.01457
-3.25052
-0.63604
-3.03073
-3.19986
-3.31735
1.7629
-3.30318
-2.96953
-1.09384
0.00386331
-0.0397589
-3.16218
-1.16419
1.26001
-3.00596
1.4043
-1.61818
-2.98929
-2.84584
-2.10257
-1.8243
0.377963
0.0989224
0.197469
-2.46786
-3.26858
-3.39256
0.045536
-1.48791
-2.34681
1.63563
1.64732
-3.3671
-1.11881
-3.05822
-2.27709
0.10733
-2.00765
1.20862
1.31
-2.64408
-2.50558
-0.146196
-0.167777
-1.25412
-3.27166
-2.97024
-3.3175
1.0524
1.11953
-2.62803
-2.68631
-2.84332
-2.90555
-2.39213
-2.3136
-2.95741
-2.48887
-2.90336
-2.99192
-3.30559
-1.54372
-3.0801
-1.97671
-1.96357
0.057623
-2.78458
-2.98088
-0.475155
-3.39182
-2.68623
-3.34627
0.171773
0.202365
-1.80043
-2.0876
-3.39073
-3.44728
0.188097
2.99676
-2.42411
-3.29475
-3.24735
-0.467419
-3.43615
0.595976
0.541057
0.138917
-3.08225
-3.35624
-3.40799
0.261269
-3.08207
-3.33298
0.148591
-3.3721
-2.4796
-3.41485
-2.24943
-3.0901
0.218594
0.183386
-3.16388
-3.19859
-3.35034
-2.62571
-2.74983
0.458772
-3.35714
0.137563
-3.01513
-3.08886
-3.34268
-3.02805
1.6123
-3.46042
-3.26745
-1.42017
-1.34236
-3.19403
-1.31892
-3.44243
-3.40717
-3.31506
-0.25786
-0.277188
-2.75126
-2.38352
-2.19081
-2.603
0.804765
0.867501
-0.435307
-0.589397
1.03893
0.96248
-0.371181
-0.447404
-3.30222
-3.1754
-3.35311
-1.54494
-3.40962
0.221912
-3.14181
-2.79371
-2.70756
0.114879
0.0799097
-2.66536
-2.27941
0.0652993
-3.36694
-3.26823
-3.51083
-3.19797
-3.37773
-1.95008
-3.34513
-3.40377
-3.33735
-0.730182
-0.731068
0.119449
0.135778
-1.92799
0.676761
0.770754
-3.35279
-3.34571
-3.42406
-3.24568
-2.60491
-2.66666
-2.64803
-2.76487
-2.79705
-3.16022
-2.92541
-2.9203
-3.15851
-3.39494
-3.40065
-2.78852
-0.583124
-2.59768
0.154956
0.162697
-3.308
-3.38438
-0.164992
-0.485329
-0.471554
-3.25907
0.521563
0.594688
-3.03912
-2.89456
-3.03404
0.607919
0.689492
-3.04794
-3.36147
-3.37312
-3.14239
-3.15192
1.24579
1.30905
0.211963
-1.91124
-2.98546
-2.58274
0.363693
0.439579
0.55894
0.476968
-3.24552
0.826068
-3.37617
-3.27631
-2.79897
2.49579
2.54201
-1.02564
-3.10155
-3.37003
-0.693868
-3.37931
-2.57077
-3.20901
-1.15805
-2.80512
-3.38575
-2.57171
-2.70307
-2.41284
-3.1489
-3.30754
0.12232
0.234271
0.138486
0.259772
-3.32238
-3.16446
-3.41042
-1.03113
0.228208
-2.91328
-2.97432
-3.16661
0.75645
-2.74452
-0.988668
-3.43236
-3.26185
-2.58116
-2.52521
-2.76661
-2.78906
0.28057
-3.17408
-0.183265
-2.99078
-3.33861
-3.40846
-3.81663
0.136117
-3.41561
0.0910125
-2.54513
0.182683
-2.7366
-2.66525
-1.41813
-3.3526
0.192401
-3.33125
-3.33029
-2.80201
-3.09144
-3.14138
-0.836879
-2.39682
-3.07585
-2.86327
-3.1861
0.297748
0.303737
-3.36546
-3.30127
-3.33163
0.285347
-3.25217
-0.885843
-0.802259
2.46468
-3.48685
-3.10306
-3.13593
0.236895
-0.575919
-3.13071
-0.868943
-1.26175
-3.21666
0.556912
0.534146
-3.25305
0.590524
-3.36496
-3.23015
-3.0062
-2.73156
-3.11953
-2.29282
-3.38615
-3.01121
-3.4053
-1.68446
-3.32968
-2.89904
-0.561631
-3.1232
0.0349108
-3.30368
0.844589
1.7933
1.87882
-3.26239
-3.43599
-3.34148
-2.33763
-2.32021
-3.30344
-2.8
-1.98337
-2.40902
-2.66897
-3.41335
-0.960904
-3.03427
-2.72882
-3.2423
-3.4382
-3.35678
-2.51914
-2.27929
1.08836
1.18621
-3.24794
0.940131
1.03583
-2.71206
-3.29826
-3.3167
-0.0580122
-0.0573775
-2.70666
-0.475733
-2.86053
-3.48093
-2.91008
-1.9499
-0.791469
-0.888434
-2.86069
-2.48629
-3.26045
-3.17025
-2.83752
-3.22302
-1.17788
-1.27695
-3.28309
-3.05431
0.532375
0.577552
-1.51383
-5.09253
-3.34724
-2.58585
-3.04741
-2.20645
-3.12116
-3.20266
-1.1878
-2.89283
-1.61334
-3.34103
-2.9576
0.154931
0.154
0.227035
-2.74171
-3.42023
-2.70085
-3.35166
-1.41294
0.158542
0.114103
-3.2202
-2.64697
0.236016
-0.707399
-0.660829
-2.98028
0.164362
-3.1141
-3.39637
0.140342
0.115485
-0.019436
-2.72634
0.00630616
-1.95949
-1.71136
-3.11106
-3.03972
-3.34553
-3.00698
-3.11459
-3.05693
-3.30067
-0.313177
2.83047
-3.19625
-2.66664
-1.42365
0.149672
0.484618
0.520507
-0.557812
-0.572364
-3.39022
-2.85311
-0.387566
-3.42921
0.0669228
-3.07296
0.138084
0.490659
0.460734
-2.54682
-2.72932
0.0939819
-3.32859
-2.74244
-2.84225
-3.13011
-3.18829
1.25774
-3.12745
0.928819
-3.38691
1.40801
-3.10175
-3.11528
-2.64748
0.462668
0.414699
-2.36694
-2.34561
-2.08942
-3.40088
-0.28068
-2.28593
1.9793
1.88245
2.36572
2.25513
-3.24054
2.09328
-2.79547
-3.28041
-3.32431
-3.27438
-2.57989
-2.52745
-2.4977
-2.86912
-2.82881
1.20177
1.10988
-3.28341
-0.51241
-0.437162
0.156831
0.643032
0.696116
-3.20757
0.422532
-1.609
-3.37546
-3.05651
-2.75399
-2.90644
-3.36625
-3.34304
-1.77591
-2.59347
-3.41943
0.524161
0.459276
-3.43795
-2.91177
0.743347
0.676478
-3.15128
-3.15352
-3.37131
-3.46405
0.190823
1.01482
0.934332
-1.27302
-2.28515
-2.56642
-3.19439
-3.33651
-3.41242
-3.15949
-3.35259
-3.30138
-3.2976
-3.03073
-3.15212
1.91897
-3.26611
2.23844
-3.27301
0.11729
-3.2204
-2.56635
1.85219
1.98153
-2.65891
-1.30831
0.442841
0.248601
0.237487
-2.64623
0.215505
0.193674
-3.3731
-3.46895
0.331859
0.190009
2.69123
-3.3965
2.55616
-3.48651
-3.38626
-2.54253
-1.28181
0.254238
0.270644
-3.18287
0.914832
1.00787
-3.05265
-2.98888
-0.107322
-1.64639
-1.91269
-3.45195
-3.3032
-3.37697
-2.00614
-2.50105
-3.19815
0.320348
0.374576
-2.67368
-3.40101
-3.40153
-3.22961
-2.68702
-0.138704
-0.230635
-0.326253
-0.3102
4.07528
-3.42744
-2.32798
-2.41327
-2.3738
-2.56899
-2.44296
-2.74811
-2.99651
-3.14059
-1.9789
-3.3033
-3.10028
-2.86172
0.240163
0.239289
-2.7313
0.692097
0.753962
-3.00959
-2.48122
-3.35774
-3.22733
-3.36039
-3.37506
0.0858221
0.0443159
1.94006
2.04615
-2.9809
-2.60599
-2.75792
-3.28434
-3.33982
0.0565335
-3.09172
-2.56814
-0.867101
-0.965135
0.203513
0.205044
-1.36032
-2.38296
-3.30423
-3.21258
-1.4367
-3.43156
1.50814
1.46969
-2.94773
-2.85851
0.373129
1.26648
1.79679
-3.00889
0.61848
0.680122
-3.29354
-1.24818
-2.72678
-2.75409
-2.21624
-2.45364
0.141254
-2.64194
-2.68521
2.59331
-2.78297
0.286464
0.301105
-2.54963
-3.28293
-2.95863
-3.2233
-3.35737
-2.71787
-3.38589
-3.1669
0.236672
0.203696
-2.02926
-3.21187
-2.76957
1.02549
0.938951
-2.36836
-2.36975
0.0953543
-3.28571
1.28792
1.19393
-1.72611
-3.35754
-3.36246
1.32962
1.23169
-3.32602
-3.25988
0.122615
-2.85162
-2.22655
-2.91513
-3.34979
-2.86361
-1.16024
-1.27191
-3.31608
3.21238
-0.936837
-2.98382
-3.09409
-2.79522
-3.32147
-3.38303
-3.16011
-3.02234
0.602053
0.56211
0.171228
0.169589
-2.85437
0.0778348
-3.27596
-3.06078
-3.29126
3.91871
-1.96707
1.21715
-3.43134
-3.28397
-3.16787
-2.52158
1.58539
-1.73522
-3.28279
-3.20711
-1.28058
0.178671
0.233481
-2.93644
-2.89546
-3.27586
-2.72777
0.161706
0.161723
-3.19173
-2.36056
-0.726788
0.0132405
-2.49305
0.089126
-3.37563
-3.36223
-3.29428
0.468877
0.38633
1.92551
2.00665
1.0187
1.11442
-1.45978
-3.23067
0.789335
0.717412
-2.44921
-3.20697
-3.26051
-3.28918
-3.36181
0.658381
0.68324
0.704457
0.633605
0.539864
0.603935
0.526616
0.576889
0.303277
0.311029
0.405989
0.424462
-3.36237
-3.26134
-1.86481
-1.06445
0.219474
-3.04158
-3.32858
-3.39182
-3.39946
-3.39805
-1.2211
-1.08624
0.0500146
-2.23792
0.758879
0.847766
-3.42075
-3.44331
-1.44865
-1.35526
-0.191787
0.523062
0.546795
-1.4876
0.0503262
0.135938
0.841208
0.760183
0.590794
0.665018
-2.94472
-2.94503
0.289899
0.713075
0.79335
-3.19781
-2.95127
0.347251
-2.94868
-2.71492
-3.2536
0.306387
0.356817
3.9143
-0.531811
-0.474851
-3.11793
-2.57637
-0.183587
-3.12648
-3.32764
1.56446
1.71851
-3.11987
-2.47136
-2.75618
0.18801
-3.09037
-3.31981
-3.32063
-3.24401
-3.27077
-3.14754
-3.2304
-2.53944
0.199943
0.201189
-2.94917
-2.7318
-3.4401
-3.31638
-3.12745
-3.28246
-2.09288
-0.143135
-2.39559
0.960026
-2.53087
-2.79786
-3.4858
-2.9688
0.342318
-3.08824
-3.41871
-3.40554
-3.33338
-3.33733
-3.43899
-2.50469
-0.255129
-2.01489
-3.39527
-3.26276
0.239394
0.24885
-1.01107
-1.00953
-2.73131
-2.58749
-3.38826
0.329091
0.21665
-3.15436
-3.21327
-3.28028
-3.01487
-0.435544
-0.437464
-1.12585
-0.056554
-2.36076
-3.43686
-3.31977
-2.94424
-3.39906
0.542572
-3.22404
-3.33717
-3.39838
0.359939
-2.76478
0.786072
-1.53401
-3.28674
-3.43146
-3.44508
-3.30117
-0.645384
-1.5028
-2.97081
-2.83628
1.68438
1.57847
-3.36946
-2.93188
-1.00121
-3.16734
0.549331
0.523015
0.712411
0.0138424
0.0316565
0.532931
-1.55062
0.343015
-1.14153
-3.10752
0.921216
0.893743
0.408666
6.83781
-3.41694
-3.38055
-3.34194
-3.58132
0.408439
-1.50463
0.177514
0.24262
-3.39874
-3.41271
0.306815
-2.78049
-2.84
-1.72271
-2.35774
-3.34289
-3.35826
-3.18399
1.57048
1.45404
1.26472
-3.3717
0.272961
-1.39217
-3.35341
-3.41478
-0.489071
-0.384826
-3.25862
-3.38663
-3.21926
-3.43176
-3.38808
-3.22726
-3.18961
-3.0884
-3.13715
-2.74311
-0.417642
-0.475711
6.15715
-2.26436
-3.13139
-3.39951
-0.487265
-0.414333
-3.3653
-3.33185
-0.166999
-0.00367285
-3.27926
-3.09058
0.170892
-3.17861
0.430275
0.320987
-3.17284
-3.2397
-3.40992
-3.40925
-2.65586
-3.26899
-0.396339
0.987435
-1.37683
-1.44478
-3.1992
2.0646
1.9849
0.124642
0.123038
-2.91538
-0.161776
-0.250337
0.0960851
0.106742
-0.489478
-3.27081
-1.63729
-3.15237
0.257964
-3.35921
0.0348464
-3.24128
-3.07982
-3.17719
-3.2871
-2.92498
-2.97379
-3.15215
-3.2124
-3.20732
-2.15258
-3.23745
-2.29444
-2.19998
-3.09996
-1.94812
1.29026
-3.30941
-3.1933
-3.22219
1.03153
-3.40688
0.190313
0.190195
0.0940567
-3.36556
-3.38081
2.89135
-3.14658
-0.167428
-3.36318
-3.3595
-0.21933
-0.0662064
2.50758
-3.17965
-1.66875
-0.369393
-3.37435
-2.59164
-2.29631
0.179578
-2.67915
-3.30988
0.127048
0.137858
-3.15531
-2.50519
-3.19447
-0.330399
-0.310328
1.42754
1.33263
0.0774815
-0.0494078
0.0231702
-0.0627821
-1.96011
-0.152068
-1.36072
1.38262
-2.51678
-3.36274
-3.3987
-3.37713
-3.29901
-3.27682
0.0761871
-3.0902
-2.11378
-3.27513
-3.3959
-3.34226
-3.04307
2.70787
-3.35036
-2.48123
-2.63331
0.271254
0.184738
-2.65336
-2.16106
-3.36745
-3.28546
-3.27026
-3.14453
0.213315
0.263544
0.478171
-3.14753
-3.20248
-1.37319
-1.19541
0.0816017
0.0991481
-0.00159203
-3.18977
0.519293
0.431269
2.37188
1.57055
0.307832
0.355204
-3.4364
-3.30372
-3.11723
-3.26811
1.21744
1.1165
-2.16006
-0.133937
-0.036905
0.447476
-0.540472
-3.24769
-3.405
-3.05646
1.8989
-3.3507
-3.33238
0.0116847
-0.0322184
-3.02377
-3.1156
-3.32918
-3.27879
-3.28662
0.0301785
-3.07807
-2.45767
-0.294579
-0.106241
-3.2568
-3.24853
-2.82281
-2.51811
0.148715
0.138963
-3.00884
-3.09709
-3.36692
-3.34343
0.0899149
-0.101639
-3.42652
-3.22994
-2.88452
-3.12369
0.0842889
-2.68545
-3.32485
-3.29064
-0.0674767
-3.29245
-3.33331
-3.26567
-3.24895
-3.22764
-0.255874
0.154923
-3.45094
0.77206
-3.38357
-3.2959
0.117538
0.0551191
-2.3775
-3.05736
-2.44931
-2.84779
-3.31956
3.34968
-3.06086
-3.31393
-3.48377
-3.23629
-2.87486
-3.12421
-0.300719
-0.201509
-2.72885
-2.79872
-3.19758
0.400504
0.405539
-3.30971
-0.593032
-2.73748
-0.278349
-1.30452
-1.46923
-3.35719
-2.92829
-2.93329
-3.37182
-2.00134
0.155105
0.0600393
-1.79547
-0.552315
-0.412676
-1.92941
-3.35807
-3.4024
1.84576
1.75164
-3.28368
-3.3988
-3.32592
-3.41374
-3.35611
-0.519351
-3.14333
-1.99084
-3.33704
-1.31531
-3.17677
-2.92205
-2.8166
-3.16692
-3.13225
0.123023
-0.830767
-0.68706
-3.07485
-3.20735
-0.0828167
-0.0557441
-0.190629
0.426903
0.468769
-3.28996
-3.28934
0.289401
0.278626
0.0406325
0.041202
-2.87111
-2.70897
-3.29721
-3.23178
-3.39867
-3.33503
-3.22041
-3.1629
-3.16534
-0.626704
-0.564133
-2.88986
-3.37164
-0.113281
-0.273323
-0.177255
-2.83446
-2.35669
-0.382699
0.0911582
-3.07285
-3.00051
-3.40869
-0.274482
1.0142
1.10074
-1.10737
-1.25305
-0.102045
-0.0689055
-0.769457
-1.03175
0.959503
-3.25027
-3.15874
-0.79418
-1.07899
-1.08008
-3.21731
-0.653269
-0.953432
-0.538218
-0.510877
1.39314
1.53052
-0.340652
-0.725343
-3.30215
-3.22315
-0.645434
-0.772815
-3.25299
-3.23863
-2.9007
-3.25508
-3.15651
-3.00336
-2.81511
-3.12238
-3.14598
)
;

boundaryField
{
    frontandback
    {
        type            empty;
    }
    simetry
    {
        type            symmetry;
    }
    inlet
    {
        type            zeroGradient;
    }
    outlet
    {
        type            fixedValue;
        value           uniform 0;
    }
}


// ************************************************************************* //
