/*--------------------------------*- C++ -*----------------------------------*\
  =========                 |
  \\      /  F ield         | OpenFOAM: The Open Source CFD Toolbox
   \\    /   O peration     | Website:  https://openfoam.org
    \\  /    A nd           | Version:  7
     \\/     M anipulation  |
\*---------------------------------------------------------------------------*/
FoamFile
{
    version     2.0;
    format      ascii;
    class       surfaceScalarField;
    location    "0.05";
    object      phi;
}
// * * * * * * * * * * * * * * * * * * * * * * * * * * * * * * * * * * * * * //

dimensions      [0 3 -1 0 0 0 0];

internalField   nonuniform List<scalar> 
2956
(
-8.70995e-07
3.45957e-07
5.25037e-07
-9.23444e-07
3.48463e-07
5.74981e-07
3.81614e-08
-5.96574e-07
5.58413e-07
-5.80488e-07
6.1865e-07
-4.17198e-07
-1.75828e-07
5.93026e-07
5.75132e-07
1.47339e-07
-7.22471e-07
-3.32092e-07
-5.81084e-08
3.90201e-07
-8.17067e-07
6.49628e-10
8.16417e-07
5.65038e-07
-6.7812e-07
1.13081e-07
-4.19478e-07
6.27176e-07
-2.07698e-07
-4.74195e-07
7.4916e-07
-2.74966e-07
-4.84706e-07
3.04063e-07
1.80644e-07
-2.74485e-07
-2.10222e-07
7.29662e-07
-6.18134e-08
-6.67848e-07
9.17354e-07
-1.87693e-07
5.20583e-07
-7.5969e-09
5.21821e-07
-7.83224e-09
7.98924e-07
-3.66688e-07
-4.32236e-07
-4.01198e-07
3.99373e-07
1.82493e-09
-4.00795e-07
3.98934e-07
1.86076e-09
-1.5481e-07
7.44566e-07
-5.89756e-07
-4.01784e-07
3.92033e-07
9.75097e-09
-4.03675e-07
3.90403e-07
1.32718e-08
4.4351e-07
4.07872e-07
-8.51381e-07
8.57338e-07
-4.13828e-07
6.55879e-07
-8.07469e-08
-5.2802e-07
6.22618e-07
-9.45976e-08
-5.02807e-07
-2.52134e-08
3.82094e-07
5.3526e-07
-8.71536e-07
8.92003e-07
-2.0467e-08
-4.89442e-07
5.45565e-07
-2.1361e-07
-3.31956e-07
-7.75589e-07
5.69173e-07
2.06415e-07
7.53752e-07
-5.02631e-07
-2.51121e-07
6.1436e-07
1.39393e-07
-4.35518e-07
2.17832e-07
2.17686e-07
-4.37186e-07
2.16147e-07
2.21039e-07
-2.23799e-07
7.6748e-07
-5.43681e-07
5.20444e-07
-7.44243e-07
-5.46995e-07
4.41879e-08
4.24243e-07
-2.5834e-07
-1.65903e-07
4.23404e-07
-2.59216e-07
-1.64187e-07
6.43793e-07
-3.82385e-07
-2.61408e-07
6.45945e-07
1.52979e-07
9.02586e-07
-6.52002e-07
-2.50584e-07
5.33517e-07
2.40883e-07
-7.744e-07
-5.52481e-07
7.27847e-07
-1.75366e-07
-1.10512e-08
4.16382e-07
-4.05331e-07
-3.97553e-07
3.86502e-07
2.11503e-07
-6.28702e-07
5.71317e-07
-1.54935e-07
2.43222e-08
6.67904e-08
4.53793e-07
6.73336e-08
4.54487e-07
6.62476e-07
-5.15137e-07
-8.17067e-07
-4.04006e-07
7.19137e-08
-3.40109e-08
8.47606e-07
-8.13595e-07
2.87827e-07
3.18359e-09
3.3571e-07
-4.89669e-08
6.09945e-07
-6.68346e-07
5.84018e-08
-2.27525e-07
7.61042e-07
-4.70914e-07
-3.04674e-07
1.38984e-07
-6.09898e-07
-6.88111e-07
8.37697e-07
-1.49586e-07
-6.04689e-07
3.77164e-07
5.35163e-07
2.89941e-07
-4.65769e-07
-5.47133e-07
3.92323e-07
5.4701e-07
-2.00385e-07
-3.46625e-07
5.3918e-07
-1.86598e-07
-3.52581e-07
-7.34802e-07
4.6711e-07
2.67692e-07
2.52863e-07
2.94146e-07
2.61096e-07
2.78084e-07
7.98697e-07
-1.88753e-07
-6.16033e-07
1.71845e-08
5.98849e-07
-8.31636e-07
2.15603e-07
-2.06555e-07
-4.16233e-07
6.22788e-07
-8.82082e-07
6.75527e-07
2.36782e-07
3.43059e-07
-5.79841e-07
-4.87537e-08
-5.25092e-07
5.73845e-07
-3.4608e-07
-2.78564e-07
6.24644e-07
-3.95387e-07
6.09872e-07
-2.14485e-07
6.15377e-07
-4.49043e-07
-1.66334e-07
3.58893e-07
-9.20788e-07
5.61895e-07
-4.54918e-07
5.63487e-07
-1.08568e-07
-9.03826e-07
5.11573e-07
3.92252e-07
-5.4993e-07
2.0385e-07
8.55315e-07
-4.71969e-07
-3.83346e-07
-7.47091e-07
3.27614e-07
4.86353e-07
2.0541e-07
2.18832e-07
2.06139e-07
2.17264e-07
7.76135e-07
-1.31635e-08
-7.62972e-07
6.1626e-07
-5.12221e-08
-6.07713e-07
1.52794e-07
5.43199e-07
3.12116e-07
7.44947e-07
-3.82107e-07
-3.6284e-07
6.17552e-07
-3.7667e-07
2.0054e-08
-2.94539e-07
3.18856e-07
-2.98802e-07
6.31271e-07
-6.92161e-07
6.08904e-08
7.92472e-07
-3.57124e-07
-4.35347e-07
4.76813e-07
-6.55739e-07
1.78926e-07
-1.59232e-07
-1.6133e-07
1.11872e-07
-5.86067e-07
-3.29744e-07
-3.38603e-07
2.20675e-07
1.82119e-07
-4.02795e-07
-6.35305e-09
-3.94442e-07
-6.39978e-09
-3.94798e-07
-8.06981e-07
1.9369e-07
6.13291e-07
2.01365e-09
-8.08995e-07
4.53004e-07
-2.32329e-07
4.15052e-07
-6.45069e-07
2.30017e-07
-6.80452e-07
-1.07516e-07
7.87968e-07
6.03699e-07
2.33325e-07
-8.37024e-07
-3.80843e-07
5.74534e-07
4.14109e-07
-1.91322e-07
-2.22788e-07
-2.22103e-07
-6.81723e-07
-6.65579e-07
2.84736e-07
-4.33254e-07
7.57861e-07
-3.24608e-07
-6.67397e-07
6.05584e-07
-8.32607e-07
5.02863e-07
8.76453e-07
-2.21089e-07
-6.55364e-07
5.35288e-07
3.41166e-07
1.40069e-08
6.2795e-07
-6.41957e-07
6.52286e-07
-6.38279e-07
-6.29242e-07
7.68933e-08
-6.88134e-07
6.11241e-07
-8.72598e-07
2.91291e-07
5.81306e-07
9.14746e-08
2.59958e-07
-3.51433e-07
2.53316e-08
3.02968e-07
-3.283e-07
-5.43413e-07
1.4586e-07
8.09664e-07
-2.8922e-07
6.69851e-07
-1.3904e-07
-5.30811e-07
2.4969e-07
1.64419e-07
-2.71347e-07
6.94017e-07
-4.22671e-07
-6.08178e-07
3.36831e-07
4.01801e-07
3.96896e-07
2.62558e-07
-3.57509e-07
9.49513e-08
2.57633e-07
-3.55824e-07
9.81909e-08
-4.24856e-07
-2.81239e-07
7.06096e-07
-3.46896e-07
7.95179e-07
-4.48284e-07
7.24751e-07
6.7721e-08
-9.60401e-08
-5.30703e-07
6.26743e-07
7.05579e-07
-5.27849e-07
-1.7773e-07
4.17595e-07
1.2797e-07
-4.03948e-07
-7.90105e-08
4.82958e-07
4.8186e-07
-7.88754e-07
3.06894e-07
4.67376e-07
3.06577e-07
-7.73953e-07
-5.50814e-07
7.09984e-07
-1.5917e-07
7.82037e-07
-6.43053e-07
3.61403e-07
3.44176e-07
6.3904e-07
-4.02257e-07
-5.89812e-07
-2.41823e-07
-1.4357e-07
2.16557e-07
-5.63453e-07
6.03699e-07
3.17303e-07
8.16308e-08
3.1774e-07
8.16332e-08
1.57046e-07
-6.21267e-07
4.64221e-07
3.63898e-07
2.79895e-07
-5.87885e-07
7.59575e-07
-1.7169e-07
1.67724e-07
-7.5561e-07
5.72167e-07
-5.72167e-07
5.71457e-07
-5.71457e-07
-4.63275e-07
1.87417e-07
2.75858e-07
3.30649e-07
1.07115e-07
-4.37763e-07
-3.70056e-07
-5.11983e-07
1.41928e-07
-4.71496e-07
-2.5788e-07
7.29376e-07
8.02152e-07
-2.97418e-07
-5.04734e-07
9.81613e-07
-1.85449e-07
-7.96163e-07
4.99742e-07
-2.17075e-07
-2.82667e-07
3.79231e-07
1.20511e-07
7.48824e-07
-4.0022e-07
-3.48604e-07
7.91305e-07
-7.91305e-07
-1.14088e-08
-5.87543e-07
5.98952e-07
-4.82439e-07
4.18319e-07
6.412e-08
-4.86338e-07
4.22289e-07
6.40494e-08
7.21977e-07
-2.40441e-07
-4.81536e-07
3.94225e-07
3.27752e-07
6.39394e-07
3.04574e-08
8.40753e-07
-2.0377e-08
-4.33305e-07
4.53682e-07
-3.86973e-07
2.32039e-07
8.39809e-08
4.88186e-07
8.35956e-08
4.87861e-07
-8.43276e-07
5.66054e-07
2.77222e-07
-4.35404e-07
-6.73891e-07
-2.89331e-08
7.02824e-07
7.2918e-08
2.52269e-07
-3.25187e-07
7.27797e-08
2.53297e-07
-3.26077e-07
-2.6791e-07
-2.1453e-07
-2.71142e-07
-2.15196e-07
5.96409e-07
-1.81358e-07
2.6504e-07
5.37112e-07
-3.22738e-07
6.95299e-07
-3.72561e-07
-6.03699e-07
-2.04481e-07
8.0818e-07
-7.74584e-07
4.94587e-07
2.5036e-07
1.82123e-07
1.56579e-07
4.53293e-07
-3.48983e-07
-3.42303e-07
6.91286e-07
-2.58989e-07
6.94069e-07
-4.35081e-07
4.53475e-07
-1.22826e-07
-8.48682e-07
1.80833e-07
7.78149e-07
-6.88111e-07
4.11042e-07
-6.75171e-07
2.64129e-07
-5.36266e-07
2.88409e-07
2.47857e-07
-4.19544e-07
-1.16722e-07
3.39164e-07
-5.98152e-07
-8.96005e-08
-3.12184e-07
-9.33262e-08
-3.10349e-07
1.55354e-07
5.07122e-07
1.42724e-07
-6.02727e-07
4.60004e-07
5.10495e-07
-6.88891e-07
1.78396e-07
-2.5885e-07
7.69345e-07
-5.05623e-07
-7.2978e-07
3.63092e-07
1.25131e-07
-6.30223e-07
5.05092e-07
3.73908e-07
-6.96646e-07
-6.13939e-07
-5.99522e-08
-3.56161e-07
-7.73234e-08
3.39881e-07
-8.11601e-08
3.38793e-07
-6.77975e-07
5.81935e-07
-4.6266e-07
1.53298e-08
4.4733e-07
6.18561e-07
1.393e-07
5.77913e-07
-4.52782e-07
6.03663e-07
-4.12985e-07
-1.90678e-07
-1.81765e-07
6.81905e-07
-5.0014e-07
1.33078e-07
-5.15464e-07
1.80666e-07
-3.97742e-07
-2.37624e-07
4.18291e-07
1.37205e-07
-3.89102e-07
2.51896e-07
-2.41856e-07
3.79061e-07
-4.60856e-07
5.73105e-07
-1.12249e-07
-4.80322e-07
4.80322e-07
-4.79981e-07
4.79981e-07
-5.9349e-07
4.11725e-07
-3.13856e-07
1.59322e-07
-4.73178e-07
-3.84091e-07
-6.80452e-07
3.95977e-07
-6.02664e-08
3.65058e-07
-7.72313e-08
-4.37614e-07
-3.06629e-07
-7.88498e-07
3.50884e-07
1.13332e-07
5.32369e-07
-6.45702e-07
-3.66867e-07
7.93595e-07
-4.26728e-07
3.10873e-07
3.1308e-07
-6.43932e-07
3.49656e-07
2.94277e-07
-5.11393e-07
1.93123e-07
3.18269e-07
-5.12885e-07
1.94444e-07
3.18441e-07
2.63482e-07
4.85679e-07
6.73859e-07
-4.10377e-07
-3.75206e-07
-1.08291e-08
3.86035e-07
-5.13454e-07
6.96021e-07
-1.82567e-07
4.79039e-07
-3.06898e-07
-1.72142e-07
5.09013e-07
-8.05853e-07
2.9684e-07
-6.3161e-07
1.70754e-07
3.04966e-07
2.98697e-07
7.61464e-07
-2.84651e-07
-3.32196e-07
-5.38799e-07
-6.17661e-07
-3.05783e-07
-6.2937e-07
-1.45627e-08
7.92847e-07
-4.8553e-07
-3.07317e-07
4.70739e-07
3.22108e-07
-9.44655e-08
-3.78713e-07
-1.38043e-07
-3.7394e-07
6.87183e-07
-2.08543e-07
-4.7864e-07
5.11573e-07
-7.17215e-07
6.86469e-07
3.07453e-08
-3.98137e-07
-6.4523e-08
1.11901e-07
3.05272e-07
-4.17174e-07
-3.45982e-07
-3.48488e-07
-3.45076e-07
5.02122e-07
-4.21587e-07
7.71242e-07
9.34622e-07
-3.98662e-07
-5.3596e-07
3.04389e-07
1.37942e-08
-3.18183e-07
2.51364e-07
4.9746e-07
5.45055e-07
1.42128e-07
5.57687e-09
6.14463e-07
-6.20039e-07
-7.12541e-07
7.4787e-07
-3.53282e-08
-5.44817e-07
6.81723e-07
2.9989e-07
-8.69024e-08
4.13034e-07
-8.1294e-07
3.99907e-07
4.24923e-07
4.32415e-07
-6.21267e-07
5.75872e-07
-2.95743e-07
-2.80129e-07
3.94055e-07
1.81817e-07
7.49354e-07
-6.0663e-07
5.45744e-07
-6.27858e-07
8.21141e-08
4.85056e-07
2.4279e-07
-9.92169e-08
-5.29191e-07
6.28408e-07
3.4928e-07
-3.3395e-07
-1.19459e-07
-1.69403e-07
7.96977e-07
-4.23069e-07
7.02691e-07
-2.89657e-07
-6.23338e-07
-6.03156e-09
5.37422e-07
2.67245e-07
-8.04666e-07
-4.83378e-07
6.79702e-07
-2.68659e-07
-7.65781e-07
2.69012e-07
4.96769e-07
5.02386e-07
9.35198e-08
-3.21883e-07
2.28363e-07
9.3674e-08
-3.21747e-07
2.28073e-07
-1.73487e-07
5.76554e-07
-4.03067e-07
-7.64699e-07
1.35243e-07
6.29456e-07
-2.69145e-07
-4.95554e-07
4.28028e-07
-1.6807e-07
4.72599e-07
-1.69631e-07
6.5515e-07
1.33347e-07
-6.04843e-07
-5.72149e-07
2.75369e-07
-2.02451e-07
2.75659e-07
-2.02879e-07
-1.25119e-07
5.92496e-07
3.75768e-07
5.62252e-07
1.47732e-07
-2.01911e-07
-5.53698e-07
4.46444e-07
-6.48355e-07
-6.75736e-07
6.17975e-08
3.34055e-07
2.93121e-07
8.01178e-07
-5.82351e-07
-2.18828e-07
5.497e-07
-7.38057e-07
7.74721e-07
-3.66646e-08
-5.60927e-07
-1.7713e-07
-3.11695e-07
-1.63042e-08
3.27999e-07
6.62361e-07
-1.16617e-07
-7.21803e-07
8.52708e-07
-1.30905e-07
9.82698e-08
-5.47313e-07
-8.46566e-07
-4.26201e-07
-2.36178e-07
6.62379e-07
2.52739e-07
-6.7894e-07
-7.63074e-07
6.4585e-07
1.17224e-07
-2.68343e-07
-4.94731e-07
7.17078e-07
-5.10663e-07
-4.44491e-07
7.50164e-07
-3.05674e-07
-7.13636e-07
-6.36276e-07
-1.76665e-07
2.21904e-07
2.31721e-07
-1.98361e-07
-5.18854e-07
3.77475e-07
3.07937e-07
-6.85412e-07
2.87497e-07
2.42067e-07
-5.29564e-07
5.41698e-07
1.99601e-07
-7.41299e-07
4.05349e-07
-3.58926e-07
7.64276e-07
-6.20535e-07
1.8723e-07
1.78286e-07
-3.38136e-07
1.59849e-07
1.81825e-07
-3.37223e-07
1.55398e-07
-5.35288e-07
8.11501e-07
-2.76213e-07
1.89927e-07
3.7317e-07
-5.63097e-07
5.90643e-07
-2.38848e-07
-3.51795e-07
-2.90673e-07
3.23327e-08
-2.90534e-07
3.13176e-08
-3.98956e-07
2.37497e-08
-4.35445e-07
3.87006e-07
-3.97836e-07
2.72765e-07
9.22938e-08
3.04286e-07
9.16913e-08
-3.09656e-07
3.12839e-07
-3.17732e-07
2.68765e-07
5.08234e-07
-2.03845e-07
7.292e-07
-1.57926e-07
-5.71274e-07
-3.91472e-07
4.68365e-07
2.16679e-07
3.96612e-07
6.60727e-07
-4.44048e-07
4.02974e-07
3.98204e-07
-1.23638e-07
5.26612e-07
9.88094e-08
-5.34157e-07
-2.88724e-07
-3.89396e-07
7.01105e-07
-1.25055e-07
-5.7605e-07
-2.01337e-07
3.91617e-07
-6.75742e-07
2.84125e-07
-2.60719e-07
-6.11879e-07
3.75805e-07
-7.44699e-07
3.68894e-07
-4.5648e-07
7.47771e-07
2.01219e-07
4.99886e-07
-4.02937e-07
-1.54675e-07
5.57611e-07
5.26198e-07
-4.73003e-07
-3.15751e-07
6.92106e-07
-3.00489e-07
-3.10244e-07
-3.79914e-07
6.90158e-07
4.311e-07
-1.99379e-07
4.28332e-07
-2.06428e-07
-1.23757e-07
6.86009e-07
6.00829e-08
6.3982e-07
-6.99903e-07
6.8075e-07
-6.20668e-07
2.14946e-08
5.15927e-07
-7.99938e-07
4.7463e-07
3.25308e-07
-2.8046e-07
2.22351e-07
-6.04763e-07
2.03586e-09
-3.72997e-07
5.42987e-07
-1.69989e-07
-2.51478e-07
6.27283e-07
6.24754e-07
-5.11421e-07
-5.9681e-07
-1.50281e-07
-5.2323e-07
-8.70286e-08
6.10258e-07
-2.16713e-07
-4.24828e-07
6.41541e-07
-7.39127e-07
1.05591e-07
6.33536e-07
-2.4454e-07
-2.34559e-08
-2.43944e-07
8.71894e-07
6.89453e-07
-1.16575e-07
2.94861e-07
-1.12224e-07
2.94049e-07
5.99696e-07
1.17382e-07
8.48256e-07
-5.67878e-07
6.85992e-07
-1.18114e-07
-8.51827e-07
6.55599e-07
1.96227e-07
4.78177e-07
-7.28362e-07
2.50184e-07
4.78882e-07
-7.29175e-07
2.50293e-07
-1.87133e-07
-4.24467e-07
6.116e-07
-4.28095e-07
2.79197e-07
-6.46064e-07
4.40642e-07
-7.29862e-07
-6.92751e-07
3.46769e-07
-6.80678e-07
3.3219e-07
-5.6253e-08
-6.19483e-07
3.06745e-07
-4.45785e-07
-2.8173e-07
-4.53072e-07
-8.6012e-08
-4.81866e-07
-5.2124e-07
3.34107e-07
7.74037e-07
-1.51419e-07
-6.89556e-07
1.88901e-07
5.00655e-07
5.89599e-07
1.16921e-07
-7.0652e-07
-6.42439e-07
3.92905e-07
3.81132e-07
-1.69414e-08
7.68049e-07
-5.85926e-07
5.14497e-07
-5.14497e-07
5.14511e-07
-5.14511e-07
-4.01582e-07
-5.19206e-07
-4.21642e-07
5.57385e-07
-1.35743e-07
-3.10559e-07
-3.30576e-07
6.41135e-07
-2.85312e-07
-5.14626e-07
3.04461e-07
2.30849e-07
-5.3531e-07
3.31596e-07
-1.13763e-07
3.32009e-07
-1.15862e-07
5.56393e-08
-3.3609e-07
-4.69764e-07
4.72741e-07
5.9425e-07
1.7323e-07
-6.24203e-07
5.98852e-07
2.53502e-08
3.15226e-07
3.38109e-08
5.32243e-07
-5.78506e-07
6.02828e-07
-1.92004e-07
-3.56731e-07
6.79068e-07
-3.22337e-07
-5.05821e-07
5.05821e-07
6.70027e-07
-1.40903e-07
-5.29124e-07
-2.83533e-07
-3.72207e-07
2.90054e-07
-1.96534e-07
2.89947e-07
-1.96273e-07
1.07749e-07
-6.01366e-07
4.93617e-07
6.67704e-07
-5.59955e-07
-1.46993e-07
-5.41141e-07
-4.81548e-07
-2.84232e-07
-9.86576e-08
6.40355e-07
1.9858e-07
-2.74002e-07
-4.20443e-07
-8.32282e-07
5.07675e-07
-5.18611e-07
-9.7179e-08
-5.23356e-07
-2.94325e-07
-4.2898e-08
-2.97903e-07
-4.02323e-08
-3.67773e-07
-4.6451e-07
-5.80276e-09
-4.32806e-07
4.38609e-07
4.74727e-07
-1.58701e-07
-3.4712e-07
-4.10187e-07
6.52254e-07
3.07402e-07
4.37164e-07
-2.82417e-07
6.59891e-07
-2.39768e-07
-3.53903e-07
5.93671e-07
-2.15563e-07
-2.16268e-07
-5.34107e-07
3.77007e-07
-5.9372e-07
7.54885e-07
6.48244e-07
-3.40307e-07
3.7831e-07
-3.94404e-07
6.66411e-07
-2.72007e-07
1.77969e-09
3.02506e-07
-3.13563e-07
3.15343e-07
-4.69891e-07
-3.81936e-07
7.64574e-07
-1.52199e-08
2.07351e-07
5.57222e-07
2.28936e-07
1.99095e-07
-4.2803e-07
5.35288e-07
3.77116e-08
7.04459e-07
-1.26668e-07
-5.77791e-07
2.68638e-07
-6.81623e-07
-2.54773e-07
4.447e-07
6.21862e-07
-6.91404e-08
-5.52722e-07
1.35253e-08
6.08337e-07
3.49279e-07
-6.1149e-07
2.6221e-07
5.07171e-07
-2.78235e-07
1.42261e-08
-5.75153e-07
4.86967e-07
-1.5366e-07
-3.26662e-07
-1.53457e-07
-3.26524e-07
-7.21803e-07
5.49093e-07
2.01071e-07
2.25267e-07
1.23695e-07
-3.48963e-07
-6.64412e-07
5.17132e-07
1.4728e-07
3.29194e-09
1.48001e-07
4.47647e-07
-5.95648e-07
2.68237e-07
-6.68457e-07
-7.27183e-07
2.15634e-08
-6.17166e-07
5.95603e-07
4.21196e-07
-3.37215e-07
4.20643e-07
-3.37047e-07
-6.78438e-07
6.78438e-07
3.64824e-07
3.26463e-07
6.10692e-08
6.26292e-09
2.86572e-07
-2.92835e-07
4.06919e-08
-7.05479e-07
6.64787e-07
-2.93668e-07
2.99931e-07
3.35699e-07
-6.29346e-08
8.22088e-07
-1.61224e-07
-6.60864e-07
5.15458e-07
-5.68835e-07
-1.87081e-08
4.46164e-07
-8.22949e-07
2.05288e-07
6.05614e-09
4.6867e-07
5.62518e-07
-8.25029e-07
2.62511e-07
5.5808e-07
-5.52503e-07
2.99494e-07
3.07818e-07
-6.07312e-07
7.24703e-07
-4.25209e-07
4.87603e-07
5.10556e-07
-1.165e-07
7.38988e-07
-2.71878e-07
-6.7852e-07
6.7852e-07
5.94445e-07
-5.80956e-07
6.17185e-08
-3.38627e-07
2.76908e-07
6.26704e-08
-3.38928e-07
2.76258e-07
9.87175e-08
5.25748e-07
-8.37749e-07
5.809e-07
2.56849e-07
-2.38797e-07
-1.38274e-07
4.42336e-07
-5.22365e-07
-1.676e-07
4.82826e-07
4.59738e-07
-4.89001e-07
5.31296e-07
-3.74717e-07
3.36409e-07
-6.59054e-07
3.22645e-07
-5.75247e-07
-3.64217e-07
5.06544e-08
-1.47106e-07
-6.65877e-07
-2.36797e-08
2.71121e-07
-2.87425e-07
1.24512e-07
-2.83542e-07
3.43507e-07
-5.99657e-08
-2.84202e-07
3.43463e-07
-5.92614e-08
3.89742e-07
-2.29893e-07
3.86705e-07
-2.31306e-07
6.21188e-07
1.70118e-07
-9.75968e-08
-5.10581e-07
-1.10975e-09
-6.91641e-07
-1.06511e-08
2.16135e-07
4.88324e-07
4.05911e-07
-7.24593e-07
6.17077e-07
-3.02616e-08
-5.49551e-07
5.79812e-07
-5.13284e-07
1.18759e-07
3.94525e-07
-1.64004e-07
-1.68111e-07
-5.10328e-07
3.91157e-07
3.33546e-07
5.32953e-07
-2.26208e-07
-3.60996e-07
5.53695e-07
-1.92699e-07
4.06748e-07
-2.17846e-07
2.46102e-07
-3.25112e-07
4.7763e-07
-1.28351e-07
-7.44229e-07
3.24386e-07
4.19843e-07
5.20237e-07
-3.10026e-08
-4.89234e-07
4.46984e-08
6.36052e-07
-6.04654e-07
8.14244e-08
5.08106e-08
-3.35012e-07
5.11778e-08
-3.34719e-07
3.32412e-07
-4.75982e-07
2.80935e-07
3.90111e-07
-6.71046e-07
4.10009e-08
2.95867e-07
2.75389e-07
6.22621e-08
-6.64891e-07
2.08411e-07
-6.787e-07
6.787e-07
3.53286e-07
4.43691e-07
2.59736e-07
4.42955e-07
4.2975e-07
1.33737e-07
-4.01018e-07
-1.93833e-07
7.10965e-07
-2.08238e-07
5.73062e-07
-2.67965e-07
-4.2648e-07
4.89241e-07
-6.00926e-07
-7.9699e-09
6.08896e-07
3.75566e-07
4.1803e-07
-2.28975e-07
-4.16094e-07
-1.08444e-07
-5.05649e-07
6.14093e-07
-7.41827e-07
6.33383e-07
-2.84574e-07
-2.84632e-07
6.45266e-07
-8.33702e-08
-5.44488e-07
4.78991e-07
-3.17544e-08
-4.47236e-07
-3.26962e-07
-2.90205e-07
-4.48079e-07
1.52336e-07
-5.69584e-07
3.84134e-07
-4.60756e-07
1.50197e-07
4.75033e-07
2.01384e-07
-6.76417e-07
6.2755e-07
-1.7921e-08
-1.5254e-07
3.39957e-07
6.19195e-07
-2.9596e-08
7.26018e-07
-2.25865e-07
-5.00153e-07
5.51167e-08
6.70901e-07
-3.12569e-07
3.26363e-07
4.27578e-07
1.03718e-07
-7.74614e-07
4.68941e-07
-4.30424e-07
-3.4419e-07
7.79742e-07
-4.88954e-07
3.93844e-07
-1.22723e-07
1.96077e-07
1.87305e-07
6.3972e-07
-3.58785e-07
-5.88532e-07
-2.02773e-07
6.29954e-07
-3.23378e-07
5.89322e-07
-6.49274e-07
-1.57226e-07
7.46547e-07
4.62559e-07
8.25171e-08
-5.45077e-07
-6.50613e-07
2.93882e-07
8.13953e-07
3.43022e-08
-6.5856e-07
2.97564e-07
-5.95169e-07
3.55401e-07
4.11133e-08
3.22257e-07
-3.6337e-07
-6.47021e-07
3.08243e-07
-5.59745e-08
3.1079e-07
-5.74932e-08
3.40646e-07
-1.46202e-07
3.39969e-07
-1.46846e-07
1.89667e-08
-5.32421e-07
-7.13767e-07
2.19742e-07
4.94025e-07
-8.98791e-08
6.53263e-07
-5.63384e-07
5.26381e-07
-2.24244e-07
-4.54276e-07
-4.41713e-07
5.82043e-08
3.83509e-07
-4.35813e-07
4.2876e-08
3.92937e-07
3.51916e-07
1.5864e-07
3.48535e-07
2.69219e-07
-6.17754e-07
1.48132e-07
-1.01084e-07
-1.83548e-07
-1.03731e-07
-1.80844e-07
7.01273e-07
-1.81036e-07
2.30511e-07
2.28278e-07
5.44979e-07
1.75393e-08
-3.30627e-08
-6.52572e-07
-7.66027e-08
5.59393e-07
-7.20616e-07
6.94636e-07
7.76882e-07
-4.87024e-07
-2.89858e-07
4.98173e-07
2.78708e-07
-9.15341e-08
6.17732e-07
-3.34121e-07
4.62182e-07
-5.53716e-07
-2.87387e-07
6.23796e-07
5.24114e-07
-1.83314e-07
-2.58399e-07
-1.87325e-07
-2.48488e-07
6.82444e-07
-6.88988e-07
6.54411e-09
1.62952e-07
5.19492e-07
5.72658e-07
-2.9671e-08
-4.50407e-07
2.88202e-08
-4.02467e-07
-1.91751e-08
-3.36051e-07
-3.77716e-07
-3.17448e-07
3.58562e-07
-1.85503e-07
-3.36862e-07
6.80024e-07
7.63646e-07
-5.05858e-07
-2.57789e-07
-6.2883e-07
5.31233e-07
-6.24642e-07
4.69967e-07
-3.34405e-07
-5.02619e-07
-3.39648e-07
4.29036e-07
-8.93885e-08
-4.05138e-07
-3.99529e-07
-2.05537e-07
-2.18795e-07
5.91965e-07
3.72082e-07
6.77773e-07
-3.83496e-07
-6.21678e-07
3.47676e-07
-4.35712e-07
2.00014e-07
2.35699e-07
-4.35015e-07
1.99191e-07
2.35824e-07
-7.2913e-07
4.07993e-07
3.21138e-07
2.5187e-07
1.41974e-07
-2.18585e-07
-7.79299e-07
5.70756e-07
-5.11573e-07
7.84476e-07
-2.72903e-07
-6.18745e-07
2.57413e-07
4.38608e-07
-3.59483e-07
-9.34414e-08
4.52925e-07
-2.87322e-07
-3.87546e-08
-2.8686e-07
-3.83265e-08
-6.40782e-07
6.63793e-07
-2.30117e-08
4.37398e-07
-6.35759e-07
6.46975e-07
-6.46975e-07
-4.70719e-07
4.45506e-07
-2.83576e-08
7.51793e-07
-4.46827e-07
1.99547e-07
-3.69537e-07
-6.57909e-07
3.15169e-07
3.4274e-07
-5.73702e-07
-1.50891e-07
5.50785e-08
6.11332e-07
9.93139e-08
9.88956e-08
9.11797e-08
-4.33876e-07
6.88489e-08
-7.17264e-07
3.90302e-07
9.14528e-08
-5.27934e-07
4.46276e-07
1.70801e-07
7.42321e-07
-6.90452e-08
-5.96832e-07
5.08651e-07
-5.77696e-07
-1.88873e-07
4.73922e-07
4.73627e-07
-7.25335e-07
2.52332e-07
4.83794e-07
-4.77123e-07
-3.45826e-07
-2.86167e-07
4.46627e-07
7.17333e-07
-5.14854e-07
-2.02479e-07
1.61858e-07
3.5264e-07
1.67391e-07
3.4712e-07
-1.09587e-07
6.01157e-07
7.66154e-08
2.37643e-07
3.86466e-07
-6.24109e-07
-6.15466e-07
-4.53978e-08
-8.63933e-08
4.65624e-07
4.53504e-07
2.11283e-07
-2.85497e-07
-2.84999e-07
8.68463e-08
-1.17272e-07
-1.16746e-07
-4.47312e-07
-2.10597e-07
-1.65059e-07
-4.08643e-07
3.34101e-07
-2.48249e-07
5.26102e-07
5.33878e-08
-5.79489e-07
7.57506e-07
-4.18342e-07
6.06624e-07
-7.93846e-08
-5.27239e-07
-6.98122e-08
6.18905e-07
-6.55364e-07
-5.98535e-07
1.48831e-07
1.94506e-07
5.93462e-07
3.45092e-07
4.63088e-07
5.45211e-07
-3.65606e-08
3.97338e-07
4.94821e-07
-2.63972e-07
-2.34309e-07
-1.01867e-07
-3.26213e-07
4.28081e-07
2.76523e-07
4.80982e-07
-1.48418e-07
-3.79431e-07
-1.48867e-07
-6.58948e-07
1.63394e-07
-1.64992e-07
-1.92518e-07
-1.67648e-07
-1.88175e-07
6.70338e-07
7.39534e-07
-6.91961e-08
-7.25541e-07
1.71843e-07
4.28946e-07
-1.53557e-07
-3.82313e-07
2.23612e-07
2.97104e-07
-3.27365e-07
-1.88357e-07
-4.59486e-07
6.47843e-07
5.917e-07
-3.14628e-07
3.58816e-07
3.29451e-07
-3.35975e-07
2.93077e-07
-3.35858e-07
2.95625e-07
2.94911e-07
-3.89376e-07
4.96528e-07
-3.70336e-07
6.19318e-07
-2.48982e-07
2.15793e-07
-5.86129e-07
-3.81996e-07
-2.46165e-07
6.83563e-07
5.51356e-07
-4.04076e-07
-6.6548e-07
-3.82089e-07
-3.6214e-07
4.35463e-07
-6.29296e-07
-1.97583e-07
5.71388e-07
-3.73805e-07
-5.05503e-07
-1.8137e-07
6.86873e-07
5.30325e-08
3.52266e-07
-2.99233e-07
-3.80632e-07
6.79329e-07
4.80876e-07
2.70917e-07
-2.29937e-07
7.23555e-07
3.431e-07
-5.68965e-07
-3.41116e-07
6.84217e-07
1.05121e-07
7.14886e-07
3.99988e-08
-3.48687e-07
2.24733e-08
-4.6616e-07
6.77664e-07
5.74846e-07
1.88254e-08
-2.8098e-07
-3.78074e-07
3.98783e-07
1.58602e-07
-4.9396e-07
3.32874e-07
4.26701e-07
-6.03874e-08
-4.08388e-07
4.68775e-07
-5.7281e-07
5.12423e-07
6.68458e-07
-2.96376e-07
-4.47123e-07
6.50283e-07
-3.20832e-07
1.40073e-08
1.41899e-07
-6.86716e-07
4.89105e-07
1.17519e-07
-3.30876e-07
-4.57622e-07
-4.08115e-07
3.55661e-07
1.45338e-08
-2.44427e-07
1.26898e-08
-2.43996e-07
-1.32109e-07
4.93512e-07
-2.5522e-07
-2.56609e-07
4.09822e-07
-1.18169e-07
-2.91652e-07
4.09865e-07
-1.18278e-07
-2.91588e-07
-2.50627e-07
5.77586e-07
-3.26959e-07
4.33735e-07
-6.39272e-07
-4.45549e-07
3.46332e-07
2.92885e-07
-3.12226e-07
3.26388e-07
2.58774e-08
-6.40301e-07
4.43408e-07
1.96893e-07
-7.29344e-07
-7.10959e-08
-4.85869e-07
5.56965e-07
2.61732e-07
2.61862e-07
4.95414e-07
3.57294e-07
-8.57127e-07
4.49012e-07
2.76509e-07
-4.14552e-07
4.52197e-07
-2.47968e-08
-5.61129e-07
8.84128e-08
6.59457e-07
-2.9273e-07
6.07899e-07
-5.03693e-07
-7.40028e-08
-7.11869e-07
4.82894e-07
-6.3334e-07
3.06234e-07
2.23916e-07
-2.31513e-07
2.24148e-07
-2.3198e-07
1.04084e-09
2.01965e-09
-4.1302e-07
2.15437e-07
1.77253e-07
-3.30913e-07
1.7736e-07
-3.30816e-07
4.4064e-07
2.27818e-07
-7.07099e-07
5.82044e-07
1.40475e-07
-4.30679e-07
6.64827e-07
-3.87606e-07
7.37526e-07
-8.90738e-08
-6.48452e-07
5.18699e-07
-5.10504e-07
5.65621e-07
1.45375e-07
-6.6238e-07
6.6238e-07
-4.87226e-07
-2.30038e-07
8.30862e-08
-5.70312e-07
-1.85448e-07
6.19183e-07
1.89826e-07
-6.00013e-07
6.40871e-07
-4.51045e-07
6.13074e-07
-6.13074e-07
1.68032e-07
-4.46267e-07
4.95414e-07
-4.34038e-08
-5.62822e-08
-6.21501e-07
1.96674e-07
-3.40422e-07
-3.47541e-07
-3.48019e-07
-3.01345e-07
6.09164e-07
1.9199e-07
1.51517e-07
1.9136e-07
1.52103e-07
6.14463e-07
4.96109e-07
-6.11362e-07
1.08533e-07
5.02829e-07
-2.03211e-07
3.95201e-07
-2.03539e-07
3.94899e-07
1.43305e-08
-5.19833e-07
-6.20039e-07
7.71022e-07
-7.38384e-07
-3.52513e-07
-1.61984e-07
-3.52436e-07
-1.62075e-07
3.0174e-07
-3.64674e-07
-4.8653e-07
-1.71634e-08
-5.20183e-07
6.11362e-07
4.5092e-07
-1.7167e-07
-2.79251e-07
4.51058e-07
-1.71884e-07
-2.79173e-07
2.47518e-07
2.4771e-07
-2.10364e-07
6.19655e-07
-4.09291e-07
-2.90067e-07
-1.58012e-07
4.87853e-07
1.31464e-07
-2.15937e-07
3.77795e-07
-2.14922e-07
6.87197e-08
3.89887e-07
-2.48028e-07
-5.00529e-07
-2.86614e-08
-3.15585e-08
-3.42013e-07
-3.87331e-07
-4.2215e-07
-2.84949e-07
-2.7703e-07
5.53553e-07
7.02539e-07
-8.48625e-07
1.96113e-08
6.44182e-07
-3.05448e-07
-2.43186e-07
-2.9741e-07
-2.56409e-07
3.59402e-07
-7.49157e-07
4.67918e-07
-5.29062e-07
3.64578e-07
-6.87119e-08
-1.41239e-07
-5.37461e-07
5.89217e-08
-5.8678e-07
4.29711e-07
-1.26162e-07
-3.03549e-07
2.89667e-07
4.73979e-07
-3.93636e-07
-2.29702e-07
-6.3022e-07
3.62255e-07
6.97339e-07
-5.56204e-07
-1.41135e-07
7.5277e-08
2.86339e-07
2.74148e-07
5.10328e-07
-2.12253e-07
-3.28888e-07
2.50637e-09
-2.62887e-07
6.87239e-07
-4.15315e-07
-2.71925e-07
-4.97318e-07
4.26222e-07
3.51311e-07
3.63575e-07
-5.05858e-07
7.07763e-08
5.90827e-08
-5.08202e-07
4.49119e-07
-5.65222e-08
7.77043e-07
-1.96916e-07
-5.80127e-07
5.00013e-07
-2.68238e-07
-2.18292e-07
-6.49874e-07
-1.57056e-08
-2.07929e-07
-5.80533e-09
5.80445e-07
7.01831e-07
-4.1189e-07
3.65779e-07
4.70827e-07
-3.02795e-07
-2.3556e-07
-4.23388e-07
-6.61612e-07
3.47731e-07
4.36682e-07
2.4931e-07
2.7409e-07
-5.6404e-08
2.74522e-07
-5.34826e-08
-2.78559e-07
-5.36509e-07
-1.7536e-07
-4.19588e-07
-2.96842e-07
4.42703e-07
-6.09394e-07
6.55705e-07
-4.63109e-08
4.09866e-07
4.09822e-07
5.28884e-07
-5.18757e-07
4.06076e-09
6.34914e-07
2.39995e-07
-4.94596e-08
3.93014e-07
2.8701e-07
5.69132e-07
-5.75164e-07
1.18725e-07
1.56153e-07
5.41186e-07
9.36777e-08
9.05424e-08
-5.98626e-07
-1.50531e-07
1.11528e-07
-7.24631e-08
-5.03587e-07
4.59923e-07
-5.32386e-07
4.88061e-07
-6.45987e-07
3.92974e-07
3.13121e-07
5.59644e-07
-3.17e-07
7.50956e-09
-4.40316e-07
-7.36883e-08
-4.75862e-07
-3.50164e-07
6.34289e-07
6.21188e-07
3.77938e-07
3.09301e-07
3.17616e-08
-5.17907e-08
4.23332e-07
-2.70996e-07
4.31577e-07
-1.55919e-07
4.30969e-07
-1.556e-07
7.10532e-07
-2.50609e-07
-6.29225e-07
6.17688e-07
-3.48469e-07
-4.69465e-07
6.51799e-07
-1.82334e-07
-6.58217e-07
4.54276e-07
5.64069e-07
-3.97123e-07
5.62725e-07
6.32065e-07
-6.93397e-08
5.14873e-07
5.42658e-07
5.72442e-07
-5.65887e-07
5.44822e-08
5.11405e-07
-6.38055e-07
-3.37692e-07
6.57382e-07
-3.19689e-07
2.07287e-07
-2.14404e-07
4.80232e-07
-2.89008e-07
-1.0579e-07
-2.88868e-07
-1.05574e-07
2.16654e-07
-5.14072e-07
-1.11755e-07
-1.11508e-07
-6.0358e-07
3.91327e-07
-4.49261e-07
-5.01515e-07
2.91151e-07
2.26007e-07
2.24905e-07
2.0675e-07
3.46804e-07
3.99369e-07
-4.48828e-07
1.88334e-07
-4.633e-07
-5.6716e-07
7.87449e-07
-4.70811e-07
4.73627e-07
4.73922e-07
-2.2468e-07
5.15114e-07
-5.3596e-07
-5.88532e-07
-2.40982e-07
6.72688e-07
-6.03969e-07
3.24084e-07
-4.73098e-07
6.21929e-07
-3.84028e-07
1.6403e-07
2.19998e-07
-3.8396e-07
1.63189e-07
2.20771e-07
2.031e-07
2.02082e-07
6.65517e-07
-2.02957e-07
-5.34533e-07
5.33065e-07
1.22534e-07
4.22905e-08
5.57406e-07
3.13317e-07
-5.54299e-07
5.0727e-07
-5.02619e-07
-8.26161e-08
3.22611e-07
4.9175e-07
-4.04592e-07
5.65887e-07
1.12813e-07
2.65402e-07
-6.15566e-07
7.3922e-08
5.27235e-07
-3.59314e-07
1.36526e-07
6.678e-07
1.37159e-07
-3.22661e-07
4.87861e-07
4.88186e-07
-2.2084e-07
6.42623e-07
-3.89884e-07
-4.15818e-08
-5.01855e-07
5.43437e-07
-2.53429e-07
-2.41554e-07
1.92585e-07
-5.24541e-07
3.53897e-07
-1.98093e-09
3.11878e-07
3.81204e-07
-6.93082e-07
7.58849e-07
-3.65835e-07
8.5228e-08
-8.69963e-08
2.31153e-07
-5.5349e-07
-2.11447e-07
5.20515e-07
-3.09068e-07
4.22755e-07
3.50677e-07
-3.67619e-07
4.99688e-07
-4.99688e-07
-1.53227e-07
4.51592e-07
-6.46813e-07
1.10386e-07
2.70409e-07
-1.0777e-07
-1.07052e-07
-3.9561e-07
5.45732e-07
-1.50121e-07
-5.9111e-07
1.75795e-07
4.90702e-07
-4.30553e-08
-5.81571e-08
-5.95198e-07
5.95198e-07
1.79457e-07
2.03325e-07
1.7266e-07
-2.88522e-07
1.73728e-07
-2.87492e-07
-4.60804e-07
-6.23872e-07
-1.70265e-07
3.68845e-07
5.05136e-07
5.70632e-08
7.14233e-07
4.3608e-07
2.78153e-07
-5.35215e-07
4.70993e-07
6.42223e-08
4.53527e-07
3.21194e-07
-5.25749e-07
-9.46612e-09
1.80778e-08
4.69775e-07
-2.19997e-07
-6.86542e-08
-6.58411e-07
-1.22864e-07
-4.98404e-07
1.98649e-07
1.96505e-07
6.80846e-07
-5.97163e-07
6.1613e-07
-1.43659e-07
2.34707e-07
-4.17138e-08
3.07473e-07
-6.76526e-07
3.69053e-07
3.18405e-07
1.12564e-07
3.2075e-07
1.10828e-07
1.03483e-07
1.04812e-07
-3.04115e-07
-2.91053e-07
-3.65079e-07
-4.83546e-07
6.07908e-08
5.63282e-07
-3.62063e-07
3.06675e-08
5.32614e-07
-4.68404e-07
6.48975e-07
-1.80035e-07
5.26112e-07
4.01627e-07
-1.77817e-07
-1.07182e-07
-1.77656e-07
-1.07841e-07
2.33727e-07
4.21978e-07
-3.52513e-07
-3.52436e-07
-1.37507e-07
-1.05346e-07
-1.07697e-07
4.2269e-07
3.36159e-07
-3.01063e-08
-2.00186e-07
2.79977e-07
2.59966e-07
4.21939e-07
3.64535e-07
4.0481e-07
6.62252e-07
-1.46004e-07
4.83896e-07
-2.87223e-07
-2.99854e-07
-2.41167e-09
3.02265e-07
-2.93566e-07
-7.16019e-09
3.00726e-07
-2.25775e-07
8.06365e-08
4.90807e-08
5.11984e-08
1.38266e-07
-5.24114e-07
3.58325e-07
-3.76306e-07
-2.31006e-07
2.97691e-07
4.68424e-07
-2.06213e-07
-3.6232e-07
3.43612e-07
5.60764e-07
-2.26709e-07
-5.10394e-07
-1.873e-08
-5.60658e-07
4.22904e-07
-4.525e-07
-1.93343e-07
2.54722e-07
5.07231e-07
-4.24714e-07
-1.49604e-07
2.75379e-07
-4.24983e-07
5.07675e-07
-1.64861e-07
1.38918e-07
2.09343e-07
1.01448e-07
2.01127e-07
1.07116e-07
-7.58992e-07
3.67521e-07
-2.7691e-07
6.54848e-07
1.38906e-07
-5.95682e-07
4.56776e-07
2.68758e-07
-3.12162e-07
2.5921e-07
-3.15492e-07
3.57401e-07
3.63709e-07
6.23413e-07
-3.55799e-07
-2.67613e-07
3.31478e-07
-5.06126e-07
3.70383e-07
-2.30747e-07
4.98404e-07
-2.58318e-07
-2.57249e-07
4.91624e-07
-2.83446e-07
-2.83391e-07
5.54963e-07
2.00165e-09
5.93462e-07
-2.36775e-07
-2.00989e-07
-1.44783e-07
-5.07103e-07
1.51908e-07
-5.28214e-07
-7.95451e-07
3.20516e-07
4.74935e-07
-4.55261e-07
5.47304e-07
-6.9441e-07
7.16474e-07
-1.69169e-07
3.6038e-07
3.65926e-07
-2.01896e-07
3.6566e-07
-2.02471e-07
-4.66758e-07
3.7893e-07
-6.47589e-07
5.14038e-07
-2.17198e-07