/*--------------------------------*- C++ -*----------------------------------*\
  =========                 |
  \\      /  F ield         | OpenFOAM: The Open Source CFD Toolbox
   \\    /   O peration     | Website:  https://openfoam.org
    \\  /    A nd           | Version:  7
     \\/     M anipulation  |
\*---------------------------------------------------------------------------*/
FoamFile
{
    version     2.0;
    format      ascii;
    class       volVectorField;
    location    "0.05";
    object      U;
}
// * * * * * * * * * * * * * * * * * * * * * * * * * * * * * * * * * * * * * //

dimensions      [0 1 -1 0 0 0 0];

internalField   nonuniform List<vector> 
2016
(
(0.49956 -0.00112435 -1.41631e-19)
(0.499085 -0.00184598 -4.39399e-18)
(0.47024 -0.0633053 0)
(0.475748 -0.0737868 0)
(0.494981 -0.00141061 0)
(0.499666 -0.0207124 2.45259e-19)
(0.301606 -0.00355136 5.37063e-21)
(0.558412 -0.0377427 0)
(0.505229 0.00671032 -3.39188e-18)
(0.505978 0.00496098 0)
(0.496066 0.00182627 -4.24471e-18)
(0.276989 0.160549 -4.20964e-19)
(0.251472 0.148076 0)
(0.543621 0.00474638 0)
(0.514723 0.00601687 0)
(0.360223 -0.0817365 0)
(0.360821 0.081993 0)
(0.51024 0.000742743 -1.76925e-18)
(0.200099 -0.2015 8.24994e-19)
(0.199858 0.201154 -8.88875e-19)
(0.497621 0.00321219 4.31943e-18)
(0.186234 0.155804 -2.92877e-19)
(0.188447 -0.153589 2.73399e-19)
(0.529763 -0.0102155 4.63071e-19)
(0.508008 -0.00321758 8.20231e-19)
(0.50063 -0.0156752 0)
(0.447204 0.080285 -7.32373e-19)
(0.436181 0.081519 5.09322e-19)
(0.524584 -0.0216161 2.15568e-18)
(0.515117 -0.00513157 -1.79372e-18)
(0.53281 0.00176017 2.20001e-18)
(0.343598 -0.118824 4.47071e-20)
(0.451496 -0.217738 8.05018e-19)
(0.489009 0.00180169 -1.87958e-18)
(0.493479 0.0109372 0)
(0.185629 -0.143401 0)
(0.184953 0.145011 0)
(0.516463 -0.0113386 1.81408e-18)
(0.52951 0.0102422 2.84775e-18)
(0.411374 0.0827665 -3.6879e-19)
(0.189975 -0.178861 -1.35845e-18)
(0.188876 0.179341 1.47581e-18)
(0.491243 0.00734978 0)
(0.502392 0.000204644 4.0612e-18)
(0.499278 0.000215013 -2.1081e-18)
(0.512997 0.00931788 0)
(0.516703 0.0707326 0)
(0.370549 0.0902453 0)
(0.365218 0.119004 -2.8122e-20)
(0.504112 -0.0039005 1.06074e-18)
(0.380862 0.0846243 -3.20406e-19)
(0.416454 0.0826375 7.5827e-19)
(0.33767 -0.0895807 9.63267e-20)
(0.338366 0.0898765 -9.27188e-20)
(0.501228 -0.0167268 -1.84775e-18)
(0.632887 -0.0881161 0)
(0.302394 -0.000344303 4.60357e-20)
(0.551327 -0.180191 0)
(0.214784 -0.101579 0)
(0.211993 0.106966 0)
(0.507782 -0.0321175 0)
(0.523377 -7.33477e-05 8.87187e-19)
(0.443233 -0.215741 -7.38072e-19)
(0.447436 -0.301881 -2.28039e-19)
(0.503588 0.00383412 3.41974e-18)
(0.520445 0.0123518 1.96251e-18)
(0.533041 -0.177627 0)
(0.493105 -0.0124459 2.34561e-18)
(0.501099 -0.00124099 0)
(0.166935 -0.255299 0)
(0.168824 0.251216 2.35698e-19)
(0.506886 0.00588841 -1.28425e-19)
(0.164826 -0.263765 -2.64821e-19)
(0.161957 0.263305 -5.08331e-19)
(0.514707 -0.0164052 -3.59924e-19)
(0.507789 -0.000598983 -1.30315e-19)
(0.506174 -0.000411723 0)
(0.503598 -0.000988832 0)
(0.500805 -0.000144272 4.2533e-18)
(0.520303 0.000505374 1.88382e-18)
(0.446251 -0.112137 -1.74767e-18)
(0.463299 -0.0493326 1.70452e-19)
(0.354591 -0.0850617 1.94942e-19)
(0.496213 -0.00207459 1.16135e-18)
(0.521405 -0.0113417 -7.15627e-19)
(0.442911 0.014784 -1.58505e-18)
(0.516866 -0.0167982 1.5114e-18)
(0.488325 -0.0483224 1.17701e-19)
(0.50623 -0.0222341 0)
(0.502972 0.00221351 2.82153e-19)
(0.499492 -0.000912737 -2.19292e-18)
(0.180496 -0.187407 1.39206e-18)
(0.179157 0.187284 -1.50972e-18)
(0.504172 0.000526098 -4.52228e-18)
(0.507029 0.00663028 3.95075e-18)
(0.442319 0.0206887 1.73969e-18)
(0.503948 -0.022938 0)
(0.498892 -0.0182001 0)
(0.528349 0.014282 -1.76937e-18)
(0.240646 0.152053 -6.33457e-19)
(0.230926 0.166499 5.74493e-19)
(0.509307 -0.0153473 0)
(0.511598 -0.00174947 -2.221e-18)
(0.516751 -0.000544937 -5.25121e-18)
(0.200096 -0.155404 0)
(0.199785 0.156849 0)
(0.508043 -0.00794251 4.10088e-18)
(0.516262 -0.0185711 -1.61518e-18)
(0.415684 -0.0723776 8.48302e-19)
(0.216793 0.192893 9.42593e-19)
(0.216974 -0.193053 -8.74851e-19)
(0.503803 0.00472535 6.6559e-18)
(0.504337 0.00275216 -4.31631e-18)
(0.413364 -0.061864 0)
(0.498144 0.000413651 -6.06317e-19)
(0.494361 0.00655372 -4.09796e-18)
(0.498798 -0.00311395 9.80732e-19)
(0.501465 -0.00129495 -4.43204e-18)
(0.276283 -0.0566313 1.95575e-19)
(0.525229 -0.00214803 -3.70587e-18)
(0.498024 0.00308767 4.30909e-18)
(0.497714 -0.00390092 4.86594e-18)
(0.548093 0.000265679 0)
(0.522954 -0.0194924 4.40835e-18)
(0.509001 0.000912065 0)
(0.50573 -0.0126942 5.13463e-18)
(0.526346 0.00203844 0)
(0.524787 0.00325676 2.0779e-18)
(0.457285 -0.0815781 0)
(0.489378 0.00139088 0)
(0.505393 0.00160173 -2.00843e-18)
(0.337501 0.0666006 0)
(0.33187 -0.0655463 5.2984e-20)
(0.335478 0.12504 2.81529e-20)
(0.529084 0.00505697 -1.92971e-18)
(0.36288 0.29228 -3.46816e-20)
(0.293089 -0.0575143 -1.31059e-19)
(0.517004 -0.023521 0)
(0.508279 -0.00663535 0)
(0.482009 -0.00988136 -1.10869e-18)
(0.19852 -0.146692 0)
(0.196077 0.14978 1.66834e-19)
(0.503817 0.00266703 -4.04523e-18)
(0.500745 -0.00437279 4.49696e-18)
(0.503487 0.00550561 2.23455e-18)
(0.503661 -0.00352835 1.09798e-18)
(0.377067 0.13869 -5.36738e-19)
(0.37909 -0.12262 -1.32841e-19)
(0.370197 0.0100742 -3.25119e-19)
(0.535482 -0.00527484 -1.47952e-18)
(0.498328 0.00410457 -2.63811e-18)
(0.516631 0.00279383 0)
(0.421473 -0.349656 -1.34669e-19)
(0.379598 0.150527 1.04942e-18)
(0.521454 -0.000870958 0)
(0.505164 -0.00350182 2.12595e-18)
(0.507179 -0.0001102 4.57783e-18)
(0.421918 -0.0660324 -7.85934e-19)
(0.499311 0.00112199 -3.89766e-18)
(0.500082 0.00341853 -1.51491e-19)
(0.183103 0.221872 0)
(0.183287 -0.222289 0)
(0.497979 -0.000649414 4.8312e-18)
(0.490727 -0.000183192 2.35457e-18)
(0.50795 0.00580084 -2.22362e-18)
(0.509166 0.00522914 4.61606e-18)
(0.366578 0.0770808 -1.68304e-19)
(0.366214 -0.0771919 1.74146e-19)
(0.328265 0.0328145 1.14784e-20)
(0.323729 0.0147541 -8.68217e-20)
(0.328298 -0.083308 0)
(0.320656 -0.0864965 -1.3891e-20)
(0.499761 -0.0204865 -5.14261e-19)
(0.492329 -0.000235301 6.30538e-20)
(0.569494 0.398206 -1.53145e-18)
(0.26989 -0.103677 1.12372e-19)
(0.289745 -0.111087 1.87933e-19)
(0.487299 -0.0555059 -7.3209e-19)
(0.505188 -0.000407578 0)
(0.514833 -0.0664978 0)
(0.172099 0.211978 7.46763e-19)
(0.173171 -0.213623 -2.03422e-18)
(0.500407 -0.00127754 6.7291e-18)
(0.49925 -0.00153583 0)
(0.408739 0.281178 -1.14177e-19)
(0.539915 -0.00610491 0)
(0.500905 0.00136965 -2.66186e-18)
(0.380861 0.0651509 -1.93752e-19)
(0.337271 0.0908714 -3.68963e-19)
(0.336827 -0.0906373 3.95583e-19)
(0.511945 -0.0025701 8.6777e-19)
(0.535393 -0.00936771 4.17782e-18)
(0.502481 -0.00107003 0)
(0.166 0.224936 2.17767e-18)
(0.166245 -0.225682 -2.0495e-18)
(0.17404 0.20666 0)
(0.176385 -0.207598 1.39228e-18)
(0.50155 -0.00244726 0)
(0.502877 0.00416258 4.13613e-18)
(0.502822 0.000286915 0)
(0.499644 0.0023349 -3.74149e-18)
(0.537943 0.0743853 1.96004e-18)
(0.485854 -0.00170484 -3.7094e-18)
(0.499065 0.000649915 -2.41185e-18)
(0.368756 -0.0907488 -1.86929e-19)
(0.517723 0.0053564 0)
(0.512155 -0.000471843 3.90443e-18)
(0.323679 0.0114019 1.08973e-19)
(0.522314 0.0030857 -5.009e-18)
(0.506643 0.0004994 4.74849e-18)
(0.508496 -0.00400315 -4.80689e-18)
(0.503247 -0.00252289 -1.74146e-18)
(0.268645 0.292319 -6.25427e-19)
(0.251073 0.268081 3.57465e-19)
(0.513254 -0.000270026 0)
(0.187746 0.154753 8.56074e-19)
(0.189411 -0.15253 -8.07676e-19)
(0.498124 -0.0173021 8.71379e-19)
(0.5241 0.0105101 0)
(0.503939 -0.0208819 3.50178e-18)
(0.513791 -0.0108897 -4.02212e-18)
(0.518084 0.0152486 1.05029e-19)
(0.507097 -0.00171904 -1.9766e-18)
(0.498565 -0.00236489 0)
(0.500883 -0.000958072 0)
(0.501274 -0.0041336 6.08608e-19)
(0.320308 0.0334634 1.42017e-20)
(0.203311 -0.150006 1.7563e-19)
(0.20081 0.152694 0)
(0.502123 0.00497492 -1.04994e-18)
(0.418545 -0.0120056 -2.1655e-18)
(0.495652 0.00140376 -1.08368e-18)
(0.499798 -0.00409265 2.45597e-18)
(0.494719 -0.00323203 -1.18854e-18)
(0.507186 0.00320773 -1.93472e-18)
(0.494383 0.00560948 1.71022e-18)
(0.268447 -0.0895596 -1.13819e-19)
(0.272042 -0.0758724 -7.92691e-20)
(0.264345 0.0913168 3.66805e-19)
(0.270996 0.0776937 0)
(0.467784 -0.0428497 0)
(0.21834 -0.251665 -2.5346e-19)
(0.218242 0.251582 1.86899e-19)
(0.51679 0.0114241 1.97189e-18)
(0.331231 0.0863599 0)
(0.322839 0.0909269 0)
(0.315422 0.127727 -9.39387e-20)
(0.501415 0.0137913 4.51654e-18)
(0.220511 0.106206 0)
(0.223452 -0.101255 0)
(0.535876 0.00224547 9.62119e-19)
(0.498147 0.00955174 0)
(0.517972 -0.00205163 3.16608e-18)
(0.508199 -0.000602669 0)
(0.189112 0.159766 0)
(0.19133 -0.157429 -1.81644e-19)
(0.494656 0.0903262 -1.83349e-18)
(0.285766 -0.122224 -1.2181e-19)
(0.286208 0.122973 1.12379e-19)
(0.502302 0.000269674 -1.62759e-18)
(0.501862 -0.00219412 2.02239e-18)
(0.350851 -0.0062138 0)
(0.492808 0.0216038 0)
(0.282095 -0.0185903 2.95227e-20)
(0.503121 -1.32192e-06 0)
(0.465033 -0.0373221 0)
(0.496925 0.00253206 -2.38785e-18)
(0.514051 0.00463077 3.84742e-18)
(0.504251 -0.000451655 -2.18765e-18)
(0.502254 -0.000454574 -2.13282e-18)
(0.458941 0.0913469 4.78127e-20)
(0.506706 0.0037905 -2.06657e-18)
(0.496912 0.00286421 4.31693e-18)
(0.303349 0.0940158 -4.1381e-20)
(0.309505 -0.0880376 -2.24451e-20)
(0.502457 -0.0244761 -6.16311e-19)
(0.531376 0.0398715 4.55433e-19)
(0.508037 -0.00917877 -1.77068e-18)
(0.400026 -0.00475113 9.45554e-19)
(0.143538 0.311538 -2.7481e-18)
(0.501528 -0.00134686 0)
(0.50156 -0.000620278 0)
(0.490738 -0.00556587 5.26631e-19)
(0.476184 0.0763616 1.49047e-18)
(0.5058 0.000616574 1.91739e-18)
(0.268475 0.210839 0)
(0.484035 -0.0609724 0)
(0.498259 -0.0098055 0)
(0.51052 0.00178841 0)
(0.503392 -0.000327472 0)
(0.510315 -0.000510851 -2.40025e-18)
(0.656782 0.19841 -1.1206e-18)
(0.499393 -0.00352037 4.9617e-18)
(0.503326 -0.00342894 -4.44949e-18)
(0.499304 0.00191571 4.44457e-18)
(0.504659 -0.00398176 -8.43883e-19)
(0.49824 -0.0093629 -4.18342e-18)
(0.281399 -0.202718 8.56638e-20)
(0.31578 -0.209869 4.6999e-19)
(0.523985 0.0113616 -2.27793e-18)
(0.500016 0.000938814 4.44474e-18)
(0.508612 0.0527268 -1.88316e-18)
(0.499812 -0.00466182 9.88053e-19)
(0.421379 0.00442981 0)
(0.501376 -0.00110597 3.7196e-18)
(0.502645 -5.01672e-05 1.90061e-18)
(0.500126 0.000585493 1.016e-18)
(0.499207 0.000950352 -1.02298e-18)
(0.461772 0.120518 -3.25113e-19)
(0.493793 0.00827601 -5.44841e-20)
(0.555277 -0.0407504 1.58711e-18)
(0.503024 -0.000564109 0)
(0.50323 0.00737226 -2.36628e-18)
(0.508668 -0.00400781 1.96507e-18)
(0.28276 0.131043 7.80171e-21)
(0.282641 -0.13069 -2.69523e-20)
(0.500165 0.000760406 -4.37237e-18)
(0.482828 -0.0041085 3.00018e-18)
(0.481485 0.00466483 1.80363e-18)
(0.337848 0.0623152 4.94485e-20)
(0.331009 -0.0580474 -5.35516e-20)
(0.502781 -0.00167862 1.32879e-18)
(0.499381 -0.0215796 -5.93335e-20)
(0.525615 0.00373213 0)
(0.499775 0.00174623 -2.27101e-18)
(0.161978 0.233695 -1.67296e-18)
(0.16197 -0.234386 1.56814e-18)
(0.502773 0.0161184 -4.71657e-19)
(0.512115 0.00851052 -2.2309e-18)
(0.508952 0.00557888 0)
(0.509958 0.00139166 2.358e-18)
(0.506637 -8.41707e-05 -4.55933e-18)
(0.499138 -0.00238244 4.17065e-18)
(0.486191 0.000740549 0)
(0.514055 -0.00266423 1.71027e-18)
(0.519568 -0.00898992 1.88065e-18)
(0.50631 0.00411195 1.21009e-18)
(0.501916 0.00271419 2.21043e-18)
(0.272471 0.0440038 2.52173e-19)
(0.499596 0.00383632 -4.30839e-18)
(0.504889 0.00127523 8.75156e-19)
(0.499908 -0.00337645 -1.5228e-19)
(0.531581 0.00678934 -4.27231e-18)
(0.499001 -0.00544905 0)
(0.500678 -0.00777563 1.34338e-19)
(0.49923 -1.41511e-05 2.14508e-18)
(0.492723 0.000875423 0)
(0.448352 -0.157673 1.10273e-18)
(0.490264 -0.00370181 0)
(0.486738 0.0125632 -4.62589e-19)
(0.499537 0.000388401 -2.07645e-18)
(0.175215 -0.229551 7.92466e-19)
(0.17147 0.22668 -1.00214e-18)
(0.512237 -0.00906104 5.75448e-18)
(0.499089 0.00177949 0)
(0.498866 -0.00123977 -3.23595e-18)
(0.496808 0.00392142 -1.92825e-18)
(0.524204 0.00474299 -3.38215e-18)
(0.526402 0.0185392 2.63914e-20)
(0.497168 -0.000203749 1.24023e-18)
(0.188252 -0.172112 0)
(0.185298 0.173113 5.24163e-19)
(0.510932 0.0121728 3.76714e-18)
(0.481336 -0.00738244 -1.01746e-18)
(0.499701 0.004267 -2.08467e-18)
(0.18607 -0.17707 2.81902e-19)
(0.185108 0.17726 -3.07588e-19)
(0.335434 -0.00624776 6.73353e-21)
(0.500473 -0.000301251 -2.29693e-18)
(0.349997 0.0107478 -3.09638e-19)
(0.246588 -0.0999209 0)
(0.243195 0.104576 1.51606e-19)
(0.207098 -0.117776 0)
(0.201275 0.119411 0)
(0.270656 0.219645 0)
(0.512481 -0.0122844 3.76725e-18)
(0.492753 0.00204511 -1.82514e-18)
(0.504213 -0.00342284 -4.81413e-18)
(0.505627 0.000652359 0)
(0.490517 -0.00214721 1.75844e-18)
(0.515885 0.00792204 -8.86629e-19)
(0.496093 0.00628619 1.55968e-19)
(0.510192 -0.00121975 -1.17035e-18)
(0.499235 0.000409213 0)
(0.527623 -0.0189118 0)
(0.511556 -0.0032088 0)
(0.496307 0.00775551 -2.14779e-18)
(0.500732 -0.00209818 2.11538e-18)
(0.495349 0.0026205 3.78794e-18)
(0.493255 -0.000825479 0)
(0.506203 -0.00398937 3.84433e-18)
(0.510445 0.00211642 1.44332e-19)
(0.531457 -0.0198145 -4.62259e-19)
(0.519358 -0.00738124 0)
(0.503292 0.000842153 0)
(0.1754 0.216991 7.69744e-19)
(0.178424 -0.220027 -7.14058e-19)
(0.5198 -0.00229251 -1.17924e-19)
(0.518467 -0.0134248 -5.70779e-18)
(0.511995 0.0101953 0)
(0.496227 -0.00839306 5.14796e-19)
(0.495691 0.00802401 3.93185e-18)
(0.303505 -0.0138987 -9.8229e-20)
(0.486354 0.0110382 -4.1219e-20)
(0.187001 0.31746 1.13289e-18)
(0.501909 -0.00212648 0)
(0.523255 0.00363919 5.42286e-18)
(0.501477 -0.00634171 7.90504e-19)
(0.504854 -0.00261616 -1.09305e-18)
(0.513295 0.00321603 2.32334e-18)
(0.49102 -0.00101562 3.88819e-18)
(0.493525 -0.00805167 1.78157e-18)
(0.504545 0.00126532 0)
(0.520136 0.00154449 -2.22275e-18)
(0.482987 -0.00596099 -2.04354e-18)
(0.189349 -0.16516 -3.34766e-19)
(0.18591 0.167292 3.68282e-19)
(0.437025 -0.148654 -1.25737e-18)
(0.611645 -0.1208 0)
(0.489047 0.0023541 -4.93469e-19)
(0.495043 0.00108628 -2.75067e-18)
(0.500267 0.000810819 0)
(0.498565 0.0014124 2.2314e-18)
(0.484265 -0.00978191 1.75954e-18)
(0.350843 -0.117145 1.12755e-20)
(0.508369 -0.00186252 -4.17664e-18)
(0.524191 -0.00427099 -2.79383e-18)
(0.499734 -0.000784332 2.32581e-18)
(0.498637 -0.00190654 0)
(0.500188 -0.00856832 -4.46821e-18)
(0.360835 0.247798 1.84327e-19)
(0.16598 0.294614 3.0901e-18)
(0.499213 0.00772998 1.45272e-19)
(0.483016 -0.0018149 -1.09796e-20)
(0.490041 -0.00171364 1.72087e-18)
(0.46026 0.0718142 8.8622e-19)
(0.499228 -0.00170915 2.92176e-18)
(0.501299 -0.00401401 0)
(0.50228 -0.00168662 1.20371e-18)
(0.469659 0.0607039 -2.07704e-19)
(0.369286 0.00992462 4.28308e-19)
(0.500385 -0.00144188 -2.40066e-18)
(0.117767 -0.326991 0)
(0.117576 0.327234 0)
(0.512034 -0.0171618 -8.56209e-19)
(0.179466 -0.337642 -1.48156e-18)
(0.509608 -0.0218754 1.28408e-18)
(0.498875 -0.00153457 -1.99227e-18)
(0.463822 0.0713798 -2.61218e-18)
(0.19395 -0.152227 -3.89539e-19)
(0.193087 0.153567 4.15906e-19)
(0.344931 0.00813015 3.63698e-19)
(0.501123 -0.00606058 -2.21772e-18)
(0.504663 0.00475399 2.89971e-19)
(0.500644 -0.00798827 -1.9478e-18)
(0.472648 -0.00404794 0)
(0.478927 -0.0360248 0)
(0.504753 0.0141685 -3.31283e-18)
(0.411243 0.109705 -1.05469e-18)
(0.369461 0.118842 6.69323e-19)
(0.491835 0.0064032 -1.89902e-18)
(0.0767929 0.386909 3.92194e-18)
(0.317739 -0.120248 0)
(0.318352 0.120859 0)
(0.499616 -0.000442 -5.23752e-22)
(0.508754 -0.00656905 -1.15167e-18)
(0.294088 0.125496 0)
(0.293878 -0.125235 8.13291e-20)
(0.501885 0.0050232 -5.6562e-19)
(0.502579 -0.00362962 1.09038e-18)
(0.509045 -0.00458392 -4.05691e-18)
(0.496106 -0.00922129 0)
(0.494254 0.00400833 4.66029e-18)
(0.50376 0.00699127 0)
(0.291384 -0.0197435 -1.36085e-20)
(0.501332 -1.38962e-05 1.78361e-18)
(0.497384 0.00247195 0)
(0.485982 -0.0083324 0)
(0.501634 -0.004269 0)
(0.1791 0.161719 -1.01852e-19)
(0.181361 -0.160071 9.35688e-20)
(0.495536 -0.00225001 -3.98389e-20)
(0.500455 -0.00225805 2.35254e-18)
(0.500779 0.000945508 1.28788e-18)
(0.0734133 0.364005 -3.74109e-18)
(0.50279 0.000894317 -5.55292e-19)
(0.50054 -0.00195343 4.22582e-18)
(0.505097 -0.000234041 0)
(0.500742 0.00194134 -2.21225e-18)
(0.500273 0.000672571 -3.47147e-18)
(0.500672 1.36869e-05 0)
(0.50138 -0.000787392 1.19431e-18)
(0.516463 0.00287843 2.33773e-18)
(0.50273 0.000729627 4.60024e-18)
(0.501819 0.00105539 0)
(0.503139 -0.00249009 2.43466e-18)
(0.428811 0.0400251 0)
(0.242907 0.109919 3.61986e-20)
(0.234986 0.124611 -1.30648e-19)
(0.497237 0.000335434 -2.11847e-18)
(0.512372 0.012475 0)
(0.525188 0.00100354 1.52497e-18)
(0.40645 -0.114666 0)
(0.509593 0.0122247 -4.26727e-18)
(0.503378 0.00500394 1.99329e-18)
(0.50901 -9.22422e-06 1.16235e-18)
(0.497731 0.00240807 0)
(0.474843 0.0119235 6.31147e-19)
(0.4873 -0.00329055 0)
(0.502076 0.00311464 -2.0382e-18)
(0.466413 0.0303711 8.01949e-19)
(0.406826 -0.117839 -1.85613e-19)
(0.506007 0.00573439 -6.48132e-18)
(0.512535 0.000155338 0)
(0.222229 -0.201686 6.59068e-19)
(0.221972 0.201593 -7.20336e-19)
(0.512308 -0.0143823 0)
(0.482752 0.00812401 0)
(0.260278 0.17694 0)
(0.499558 0.000445318 2.21906e-18)
(0.498109 0.00120343 0)
(0.493318 0.00464939 -2.31847e-18)
(0.482403 -0.0819649 8.20751e-19)
(0.492741 -0.00314081 -8.91049e-19)
(0.504113 -0.00293263 -2.86046e-19)
(0.315785 0.096158 1.40841e-19)
(0.315461 -0.0958304 -1.91974e-19)
(0.494205 0.00496045 0)
(0.499384 0.00171606 4.41886e-18)
(0.270853 0.0409781 -4.04179e-19)
(0.242273 -0.148029 -8.10773e-19)
(0.488719 0.0622705 -3.58782e-19)
(0.231578 -0.159538 7.34085e-19)
(0.241881 -0.107684 0)
(0.526853 0.00540341 0)
(0.530373 0.00610273 1.66667e-18)
(0.487838 -0.0610614 0)
(0.459606 -0.0408622 0)
(0.506774 -0.0117558 -4.61152e-18)
(0.500802 -0.000814926 0)
(0.498905 0.000598187 -4.18059e-18)
(0.504434 0.0141677 -1.89423e-18)
(0.501232 -0.00401725 0)
(0.499191 -0.000381966 0)
(0.494898 -0.00121302 3.19318e-18)
(0.496293 0.00248474 0)
(0.321971 -0.18892 1.46742e-19)
(0.511515 0.00965843 -1.05426e-18)
(0.499564 0.00030663 0)
(0.498288 0.00221518 2.61422e-18)
(0.498704 0.002945 3.24878e-18)
(0.241733 0.141046 -3.01913e-19)
(0.241794 -0.140155 2.76416e-19)
(0.493345 0.00446699 -2.50086e-18)
(0.499704 0.0216425 4.28215e-19)
(0.501822 -0.0373787 -3.68207e-18)
(0.503221 -0.0410397 1.88656e-18)
(0.286102 0.149412 0)
(0.297068 0.12799 8.6963e-20)
(0.474379 -0.0332169 3.88564e-19)
(0.499012 -0.0001915 2.13264e-18)
(0.441875 0.0597485 6.94717e-19)
(0.371827 -0.0690041 0)
(0.501656 -0.000764002 -1.03806e-18)
(0.511432 0.0104463 2.81433e-19)
(0.231347 0.128152 -1.84211e-19)
(0.510248 -0.00891819 0)
(0.529039 0.0117766 -1.65395e-19)
(0.270301 0.0519276 -1.46149e-19)
(0.503043 -0.0103391 -3.04835e-18)
(0.242215 -0.141202 0)
(0.242178 0.141646 9.0022e-20)
(0.190225 -0.182058 -6.51592e-19)
(0.187263 0.182945 2.24569e-19)
(0.518331 -0.00206464 1.02466e-18)
(0.514021 -0.0246878 0)
(0.50015 -0.00179127 0)
(0.499138 -0.000352032 2.45227e-18)
(0.500534 0.000788061 -4.46032e-18)
(0.266732 0.171667 4.19058e-19)
(0.489952 0.00504958 -3.99208e-18)
(0.481279 -0.00445146 0)
(0.43059 0.00745379 -1.34566e-18)
(0.404782 0.00684751 2.72396e-19)
(0.493452 -0.00151194 -1.95746e-18)
(0.487298 0.00148626 -1.1695e-18)
(0.358634 0.231638 0)
(0.496982 0.00125308 -6.93614e-18)
(0.501141 -0.00275415 0)
(0.51402 0.00747155 7.52673e-19)
(0.372722 -0.00282199 -2.87462e-19)
(0.480309 0.0452447 -2.81673e-19)
(0.495963 0.00953771 1.6824e-18)
(0.490789 0.0403049 4.48666e-19)
(0.50631 0.00790397 4.49705e-18)
(0.500782 -0.00404411 2.83779e-19)
(0.253129 0.139408 -2.3552e-19)
(0.253101 -0.13902 1.0595e-19)
(0.450018 -0.0342603 7.34286e-19)
(0.506795 0.00916067 3.86533e-18)
(0.247671 0.0740098 0)
(0.247528 -0.0718822 2.11917e-19)
(0.503027 -0.000704534 -4.36622e-18)
(0.496999 -0.00447642 -2.06459e-18)
(0.500377 -0.000760434 -2.2481e-18)
(0.498996 -3.95825e-05 2.42023e-18)
(0.461063 0.0110139 -2.13709e-19)
(0.487345 0.0595098 1.47208e-18)
(0.500217 -0.00165669 -2.34361e-18)
(0.505415 0.00174167 -6.46086e-20)
(0.501112 -0.000186963 0)
(0.496629 -0.0059409 -1.90557e-18)
(0.507313 -0.00362335 0)
(0.500991 -0.0058254 0)
(0.503245 -0.00183883 5.81431e-19)
(0.497256 -0.00174085 0)
(0.50494 0.00423752 -1.77428e-18)
(0.182047 0.160616 -3.68803e-19)
(0.184122 -0.159237 -1.0072e-19)
(0.505367 -0.00478194 -3.52493e-19)
(0.525927 -0.00118837 5.3034e-18)
(0.491279 0.00258083 2.0285e-18)
(0.492687 -0.00651169 4.14302e-18)
(0.267531 -0.223081 -9.42718e-20)
(0.521175 0.35332 8.05418e-19)
(0.521689 -0.0122023 2.6849e-18)
(0.493967 -0.00613345 0)
(0.500618 0.00012126 0)
(0.433965 -0.112392 1.58571e-18)
(0.327649 0.039372 -1.13195e-20)
(0.500975 -0.00328376 2.7892e-19)
(0.500746 -0.0171785 2.03497e-20)
(0.507029 -0.00284031 -2.23445e-19)
(0.27827 0.194609 -5.96624e-20)
(0.372424 -0.0571026 -6.55951e-21)
(0.491583 0.00133775 0)
(0.493279 0.00745544 0)
(0.438195 -0.0257456 -1.19907e-19)
(0.419294 0.0266439 1.51311e-18)
(0.277006 0.0581419 2.56501e-20)
(0.279813 0.00834498 3.44783e-19)
(0.510934 -0.00076534 -9.72715e-20)
(0.512586 -0.00814464 2.01883e-18)
(0.511685 -0.00955413 4.05646e-18)
(0.495567 0.0105203 0)
(0.500313 0.000513773 -5.8854e-19)
(0.500906 -0.00411208 2.18592e-18)
(0.496547 0.00691634 -3.05162e-18)
(0.504224 0.000190188 2.09592e-18)
(0.581009 -0.0728412 6.50474e-19)
(0.55867 -0.0736979 -4.80197e-18)
(0.494508 0.00156862 6.79492e-18)
(0.497723 0.00281547 2.22607e-18)
(0.343032 -0.0381133 -5.35006e-20)
(0.500698 -0.00081195 0)
(0.160936 0.229408 -1.41387e-19)
(0.161032 -0.230477 0)
(0.269372 0.136969 0)
(0.26887 -0.136152 0)
(0.477045 0.0178056 0)
(0.487906 -0.0111428 0)
(0.51394 0.00547573 -2.12936e-18)
(0.512718 0.00462483 4.34415e-18)
(0.499863 -0.00117588 0)
(0.500067 0.000365889 2.38409e-18)
(0.207685 -0.203457 0)
(0.203135 0.205443 1.19556e-18)
(0.335669 -0.168773 9.6303e-23)
(0.506115 0.000600774 -2.19436e-18)
(0.444904 -0.0193958 1.29353e-18)
(0.176793 -0.152009 -4.29076e-19)
(0.175282 0.153761 9.28177e-19)
(0.494702 0.0330725 0)
(0.183288 -0.156552 7.05063e-19)
(0.182045 0.15761 -7.52908e-19)
(0.503057 0.00852354 0)
(0.500056 -0.000643444 0)
(0.50108 0.00164363 5.43138e-19)
(0.516659 0.00201097 0)
(0.502612 0.0164562 0)
(0.480544 -0.0208572 -1.00643e-18)
(0.48683 -0.00689212 -2.81416e-18)
(0.505161 -0.000336454 -2.3396e-18)
(0.506751 0.00266992 -6.08046e-19)
(0.507256 0.00270171 -4.49875e-18)
(0.508536 0.00218204 0)
(0.503054 -0.000221191 0)
(0.196233 -0.192301 0)
(0.188676 0.193874 -1.16803e-18)
(0.500145 -0.00117101 -2.20473e-18)
(0.500077 -0.000721094 4.22162e-18)
(0.210946 0.333114 1.22507e-18)
(0.465376 0.0732492 4.37989e-19)
(0.182398 -0.314249 -6.12928e-19)
(0.490411 -0.00453584 2.17262e-18)
(0.343138 -0.0236993 0)
(0.505034 0.00189713 3.62761e-18)
(0.283635 0.123747 1.25543e-19)
(0.499331 -0.00484957 4.75024e-18)
(0.493047 0.00297126 -1.52746e-18)
(0.497892 -0.0132057 0)
(0.505992 -0.00532096 -9.9798e-18)
(0.49861 2.84647e-05 1.14777e-18)
(0.207227 0.225675 -2.90164e-19)
(0.490311 0.0031528 -1.98171e-18)
(0.50246 0.00436081 4.49208e-18)
(0.51305 -0.00650799 4.93753e-19)
(0.507994 0.00185349 -2.46592e-18)
(0.473446 0.0544287 -1.32983e-18)
(0.500142 -0.000659377 -2.43131e-18)
(0.266021 0.12506 -1.16643e-20)
(0.265862 -0.12451 -1.46194e-20)
(0.494862 0.0389908 -1.31004e-18)
(0.291921 0.0603934 1.80924e-19)
(0.47292 0.05691 -9.06026e-19)
(0.48867 -0.046297 5.37027e-19)
(0.51881 0.0317294 0)
(0.507012 -0.00307719 -2.44133e-18)
(0.476576 0.0180004 -3.19958e-18)
(0.213081 -0.234837 1.33856e-18)
(0.183202 -0.196713 0)
(0.182839 0.196118 -2.08888e-19)
(0.481756 -0.00677052 0)
(0.50157 -0.00682898 -1.787e-18)
(0.497943 -0.0017122 0)
(0.432686 0.103365 -4.81549e-19)
(0.517156 -0.00243535 1.38749e-19)
(0.489039 0.00128879 2.0682e-18)
(0.501097 0.0022953 1.28888e-18)
(0.206011 0.284019 -2.23325e-18)
(0.501928 -0.00278455 0)
(0.485005 0.00155283 1.01579e-18)
(0.426541 0.0532691 -6.68912e-19)
(0.285991 0.113749 -1.65528e-19)
(0.285787 -0.113532 2.13439e-19)
(0.506752 -0.00124224 0)
(0.431794 0.0206619 -1.63083e-18)
(0.199045 -0.246446 9.22575e-19)
(0.519396 -0.00617856 -2.26651e-18)
(0.190516 0.239416 -4.65208e-19)
(0.500171 -0.0430953 0)
(0.482207 0.0168734 4.1663e-18)
(0.512957 0.00258404 -3.96521e-18)
(0.509852 -0.00752159 -1.40279e-18)
(0.489527 0.0267349 0)
(0.251093 0.189621 6.45887e-20)
(0.217545 -0.219205 0)
(0.217275 0.218953 0)
(0.529694 -0.00415952 -4.49475e-19)
(0.500146 0.00210128 5.64404e-19)
(0.502287 -0.000743453 -2.29111e-18)
(0.317997 -0.105602 -1.07066e-20)
(0.486857 0.0173852 1.98739e-18)
(0.513724 -0.0137716 -8.89692e-19)
(0.116611 -0.327764 3.6547e-18)
(0.115612 0.327201 0)
(0.507052 -0.00308901 2.35342e-18)
(0.483923 0.0570669 6.23084e-19)
(0.494048 0.0011378 0)
(0.50947 0.00433917 7.83929e-19)
(0.290114 -0.116142 -2.5048e-19)
(0.480513 0.037614 -6.64518e-19)
(0.183701 -0.195607 0)
(0.183257 0.195236 2.27605e-19)
(0.486765 -0.00855937 4.54794e-19)
(0.532652 -0.00222713 8.9654e-19)
(0.288152 0.119245 -1.39776e-19)
(0.287857 -0.11869 1.51485e-19)
(0.473528 0.0109193 0)
(0.493638 -0.00225364 0)
(0.478246 0.0027156 1.05269e-18)
(0.50378 0.00055995 -4.57498e-18)
(0.185492 -0.204519 1.98413e-18)
(0.179824 0.203724 -2.14783e-18)
(0.508416 0.00155643 -1.88976e-18)
(0.491139 -0.00857764 -5.14493e-18)
(0.503643 0.00194887 5.02678e-18)
(0.504643 -0.00602129 0)
(0.480152 -0.00692528 0)
(0.484928 -0.0173964 4.85174e-19)
(0.506058 0.00139933 2.2242e-18)
(0.487558 -0.00107802 4.64472e-19)
(0.497343 0.00647195 0)
(0.494371 0.00362857 4.04009e-18)
(0.499294 -0.000519504 2.20715e-18)
(0.50587 0.0104731 0)
(0.504108 0.0151567 -4.49106e-18)
(0.487994 0.0580807 0)
(0.479905 0.0491544 0)
(0.286616 -0.161525 1.37493e-20)
(0.501126 0.00896935 3.7662e-18)
(0.485562 0.0160712 0)
(0.354704 0.159039 -6.30995e-21)
(0.492964 -0.00130301 1.23673e-18)
(0.489272 0.00495292 -1.80629e-18)
(0.499637 -0.000332035 0)
(0.201068 -0.148727 -1.90011e-20)
(0.198935 0.151739 2.11343e-20)
(0.536515 -0.00351267 1.66747e-19)
(0.521487 -0.00977436 0)
(0.511034 0.00358174 -5.98324e-18)
(0.508289 -0.000561827 -1.26838e-18)
(0.255071 -0.0677806 -5.92972e-21)
(0.130853 0.348539 -5.02191e-18)
(0.509968 0.00828085 0)
(0.500377 -0.0014566 4.46363e-18)
(0.510542 -0.000567072 2.22278e-18)
(0.408787 0.0617639 -4.69368e-19)
(0.496333 0.00134269 6.70143e-21)
(0.174204 0.169643 4.53246e-19)
(0.176159 -0.169023 -4.15096e-19)
(0.308062 0.0676854 5.40145e-20)
(0.492752 0.0025075 0)
(0.495831 -5.54938e-05 2.41723e-18)
(0.497856 0.000372842 1.12052e-18)
(0.288957 -0.19115 5.55356e-20)
(0.508213 -0.00704954 0)
(0.503442 -7.34442e-05 -2.29362e-18)
(0.274793 -0.0667491 1.96892e-20)
(0.499809 0.00218908 4.68628e-18)
(0.499373 0.000549938 0)
(0.501055 -0.000370616 -4.71748e-18)
(0.46971 -0.0411911 0)
(0.491381 -0.0024405 1.00853e-18)
(0.264793 -0.113332 0)
(0.256721 -0.127405 6.75935e-20)
(0.499274 -0.00250706 0)
(0.490702 7.94167e-05 0)
(0.504371 0.00263184 -2.1828e-18)
(0.500605 -0.0119166 -5.42238e-18)
(0.491729 -0.000123908 1.78586e-18)
(0.262825 0.135872 1.41184e-19)
(0.500884 -0.00174123 -4.51619e-18)
(0.288699 -0.163714 -4.75028e-20)
(0.508262 0.00116889 5.15324e-19)
(0.498796 0.000353208 0)
(0.49583 0.00244444 2.4663e-18)
(0.506963 -0.00145495 3.37044e-18)
(0.221536 -0.362535 3.01742e-19)
(0.501574 0.000900185 0)
(0.500002 0.00647331 -2.37934e-18)
(0.504658 0.00990588 0)
(0.491634 0.0178918 0)
(0.492996 0.00515475 0)
(0.428499 -0.0973469 -7.55952e-19)
(0.497624 0.00201657 -2.45322e-18)
(0.49779 0.00171403 1.48903e-19)
(0.506561 0.00166206 -3.55675e-18)
(0.307337 0.101096 1.09487e-19)
(0.307039 -0.100641 -1.13673e-19)
(0.466874 0.00463083 4.44347e-19)
(0.494808 0.00988621 -1.67968e-18)
(0.526375 0.0067467 -2.52871e-18)
(0.50162 -0.0746407 0)
(0.181185 -0.186226 -2.80527e-19)
(0.178523 0.18656 3.02118e-19)
(0.410579 0.114332 -1.6816e-19)
(0.407085 0.111433 7.36436e-20)
(0.185709 0.19103 0)
(0.18788 -0.191159 -1.6731e-19)
(0.282163 0.152705 -2.27679e-20)
(0.282146 -0.15265 -5.94387e-19)
(0.498443 -0.00389498 -1.18548e-18)
(0.486842 0.007551 -3.85102e-18)
(0.502584 0.00181449 3.61463e-18)
(0.486251 0.0185491 0)
(0.501151 0.00577686 2.43587e-18)
(0.262707 -0.128213 8.53265e-20)
(0.505513 0.00721573 -4.06987e-18)
(0.504371 0.00711144 9.57806e-19)
(0.480295 -0.0174354 0)
(0.251505 0.135919 0)
(0.251452 -0.135206 0)
(0.494996 -0.00478694 0)
(0.510115 0.00469761 1.4e-18)
(0.308101 -0.0653099 3.1826e-20)
(0.499515 -0.000620112 -2.46262e-18)
(0.497855 -0.00145836 2.34133e-18)
(0.503466 0.000280602 0)
(0.501364 -0.00508737 -2.03107e-18)
(0.503579 -0.0012532 5.60873e-19)
(0.487619 -0.00628228 2.952e-19)
(0.502094 -0.0014307 0)
(0.514991 0.00588268 2.35176e-18)
(0.502017 0.00145624 0)
(0.383964 -0.0689052 4.31281e-19)
(0.384854 0.0692764 -4.26708e-19)
(0.24917 -0.138903 2.79915e-20)
(0.249065 0.139703 -2.99177e-20)
(0.482693 -0.052538 1.70162e-18)
(0.245589 -0.179671 -3.95675e-19)
(0.245453 0.179609 5.14714e-19)
(0.501675 -0.000649819 2.51301e-18)
(0.494136 -0.00158413 0)
(0.497208 -0.00133112 -1.07324e-18)
(0.503815 0.0114392 -2.20229e-18)
(0.532269 0.0130125 1.81412e-18)
(0.507443 -0.00976928 -1.89332e-18)
(0.515671 0.0018263 -1.8001e-18)
(0.499531 -0.0143909 2.54489e-19)
(0.495479 -0.00621074 0)
(0.507168 0.00117888 0)
(0.519243 -0.00081071 2.14154e-18)
(0.523714 -0.00660352 -2.26188e-20)
(0.490334 0.00353974 3.02087e-18)
(0.499612 0.00263312 2.33428e-18)
(0.499325 -0.000581474 -4.5049e-18)
(0.50795 -0.00554382 -6.52238e-18)
(0.403767 -0.125262 7.07997e-20)
(0.501894 0.00138709 0)
(0.193577 -0.121708 0)
(0.190112 0.127056 2.36004e-19)
(0.510309 0.00434367 0)
(0.500517 0.00122787 -7.74253e-21)
(0.367809 0.120336 -1.10095e-20)
(0.362163 -0.0629994 -8.60245e-19)
(0.362493 0.0632075 8.46673e-19)
(0.495769 -0.00287009 0)
(0.227535 -0.152823 0)
(0.227215 0.153052 0)
(0.504641 -0.0120374 0)
(0.480348 0.00072472 0)
(0.50785 -0.00505164 -1.09948e-18)
(0.226159 -0.163139 -5.2592e-19)
(0.225916 0.163405 4.95507e-19)
(0.477174 -0.00313074 -1.32156e-19)
(0.508227 0.00235986 -2.71083e-18)
(0.504732 -0.000399691 0)
(0.511503 0.00101032 4.0677e-18)
(0.508077 0.00390512 2.11529e-18)
(0.139829 -0.286315 8.1239e-20)
(0.140031 0.286222 -1.04507e-19)
(0.232135 -0.124845 0)
(0.477124 0.0239667 -8.0256e-20)