/*--------------------------------*- C++ -*----------------------------------*\
  =========                 |
  \\      /  F ield         | OpenFOAM: The Open Source CFD Toolbox
   \\    /   O peration     | Website:  https://openfoam.org
    \\  /    A nd           | Version:  7
     \\/     M anipulation  |
\*---------------------------------------------------------------------------*/
FoamFile
{
    version     2.0;
    format      ascii;
    class       volScalarField;
    location    "0.05";
    object      p;
}
// * * * * * * * * * * * * * * * * * * * * * * * * * * * * * * * * * * * * * //

dimensions      [0 2 -2 0 0 0 0];

internalField   nonuniform List<scalar> 
2700
(
-1.82953
-19.6025
-3.57668
-20.0806
-11.1517
-16.3719
-14.4141
-9.56529
-16.4971
-9.93882
-15.8914
-9.53686
-14.9304
-5.36903
-18.8344
-4.73771
-3.94459
-18.4524
-19.971
-2.46747
-16.309
-11.5368
-8.21637
-8.56408
-19.8134
-2.38324
-15.6621
-8.5806
-9.82043
-18.161
-16.6085
-3.25256
-19.7321
-2.54696
-19.7346
-15.0407
-9.12015
-16.6748
-9.2266
-17.4099
-5.12416
-10.1861
-17.4784
-20.7007
-0.947276
-9.87287
-16.0263
-3.64319
-18.6726
-4.83013
-16.7748
-16.5769
-17.6894
-2.55325
-20.0621
-7.0528
-19.8767
-1.99113
-3.35066
-19.7419
-13.8818
-13.2219
-19.5749
-2.76695
-17.5469
-17.3939
-17.6592
-4.42655
-11.362
-5.93994
-16.3284
-10.3734
-3.20787
-19.8291
-2.81411
-19.7208
-8.03118
-9.89807
-16.7642
-7.33705
-8.61228
-8.30675
-11.12
-18.0682
-9.59114
-16.1055
-17.2234
-8.92348
-18.7551
-17.8247
-8.66381
-7.53099
-16.1849
-9.05911
-4.03279
-15.6698
-7.93285
-4.93106
-19.0326
-10.406
-11.1993
-5.70016
-11.0923
-10.4918
-9.28898
-2.5155
-20.2423
-4.53927
-10.8643
-10.2125
-1.94164
-20.1914
-14.3774
-15.1054
-19.2108
-9.30711
-4.17021
-10.029
-8.87372
-17.367
-16.2674
-10.3662
-7.57574
-9.20773
-2.95377
-19.6541
-3.67425
-18.7313
-4.7151
-3.17883
-19.8416
-19.8491
-3.49445
-2.87294
-19.4258
-16.9708
-15.6611
-12.8902
-2.77004
-20.0693
-1.80038
-19.9479
-10.329
-10.5379
-9.46343
-19.1532
-3.22396
-16.7011
-2.42905
-19.6344
-19.6312
-3.34237
-7.05529
-6.46171
-3.9314
-19.5853
-7.78547
-19.4277
-3.28233
-9.59951
-2.56915
-19.638
-4.22101
-4.17943
-1.0038
-20.7581
-13.7345
-10.4236
-14.6401
-8.09073
-1.55788
-20.7138
-19.2293
-19.2309
-19.2284
-3.82416
-19.715
-2.62113
-0.519638
-20.6425
-17.7617
-12.6862
-17.6331
-19.8907
-2.1804
-10.2665
-8.65291
-6.7568
-8.59579
-18.1469
-5.30816
-10.5011
-6.8811
-12.1831
-7.91907
-11.0535
-8.68703
-10.4427
-16.8247
-8.43458
-2.1831
-19.9864
-19.2023
-3.5431
-16.0029
-16.2012
-7.5147
-17.0896
-18.4989
-4.51923
-19.0757
-3.50782
-18.6578
-4.26733
-6.21836
-13.0649
-17.3201
-2.40082
-20.1316
-20.0134
-1.46818
-11.8641
-11.8506
-7.7619
-17.3089
-7.59383
-13.387
-13.9058
-16.0892
-4.13842
-19.0861
-16.0796
-11.7425
-7.0475
-2.09143
-20.3725
-20.1452
-1.45613
-2.68288
-20.0787
-12.6881
-1.97209
-20.012
-16.0646
-16.2663
-12.781
-2.12759
-2.00754
-20.5663
-20.9071
-15.5735
-16.0227
-16.0174
-9.7934
-10.5564
-18.2659
-17.8888
-13.0742
-17.9625
-18.2283
-3.88851
-19.1569
-9.40884
-6.65705
-3.92583
-20.2088
-2.75361
-15.6366
-3.37451
-1.78844
-19.9624
-17.3007
-9.92077
-10.8239
-2.60177
-19.85
-10.7824
-15.3341
-19.9361
-3.02
-2.79841
-19.6863
-19.817
-20.178
-2.82344
-1.99164
-17.2945
-15.7659
-16.9947
-19.9913
-2.09072
-15.0238
-15.7871
-19.748
-2.88593
-16.5163
-4.9848
-18.743
-10.2025
-18.9308
-3.9354
-9.819
-19.8785
-2.91299
-12.3835
-8.62611
-8.48716
-12.9037
-18.336
-2.43102
-20.3623
-20.0818
-1.44312
-16.8446
-10.3834
-5.11505
-9.30924
-10.4548
-14.3072
-10.6737
-11.3879
-8.0792
-14.9773
-18.7548
-10.3836
-9.4335
-6.23254
-15.9833
-7.81446
-5.58947
-4.05943
-14.9721
-14.6036
-6.65616
-11.3107
-12.8137
-6.51809
-18.5756
-2.34406
-20.0136
-2.84228
-19.6873
-9.64096
-10.1507
-5.7251
-17.8672
-10.1413
-4.72666
-20.7964
-0.8908
-18.7986
-18.9921
-7.22496
-17.8202
-18.5211
-9.92876
-11.6198
-3.96222
-10.3963
-4.53508
-20.2403
-20.059
-0.987934
-2.50253
-6.05859
-2.34973
-20.185
-20.2488
-1.67462
-15.5126
-6.15149
-20.1559
-20.1819
-1.33284
-2.32118
-16.9408
-18.8039
-18.6104
-19.7228
-2.78608
-2.92878
-19.1343
-19.5593
-3.92
-2.47027
-20.0433
-5.99189
-19.8911
-2.00231
-17.2702
-18.8378
-19.8343
-2.40383
-8.55837
-10.9081
-10.2732
-14.6871
-14.1049
-11.8999
-14.3039
-18.39
-2.69444
-19.7274
-2.53637
-20.0225
-19.1877
-1.56429
-20.1387
-1.56205
-20.5176
-18.1094
-19.6495
-1.87554
-20.1853
-2.78887
-4.12902
-18.3331
-11.3153
-13.6273
-5.8522
-5.13933
-18.6396
-12.17
-13.4212
-4.29223
-16.6884
-3.71748
-19.7661
-19.5888
-2.78677
-12.4067
-8.17623
-15.0124
-20.4925
-0.237667
-18.9151
-10.182
-13.0094
-2.79417
-19.5544
-19.8451
-3.45081
-19.8005
-3.69459
-14.5003
-10.6034
-10.3828
-3.12374
-19.7241
-20.1354
-1.22128
-10.6142
-17.274
-17.713
-13.0538
-3.9601
-19.7945
-2.42109
-19.3686
-13.7146
-8.92762
-16.3271
-13.6757
-9.18648
-16.8187
-17.8459
-11.3195
-16.0676
-6.30711
-16.8671
-14.705
-9.64241
-2.52651
-19.5832
-6.5527
-0.908112
-20.9056
-5.9833
-17.8588
-19.5473
-3.52222
-15.7551
-8.60611
-5.69995
-17.8495
-8.68749
-16.6244
-12.6605
-6.37575
-17.5665
-18.1498
-7.72707
-11.2391
-11.8279
-19.7025
-3.01044
-20.6862
-0.204662
-6.87406
-13.2075
-3.16869
-19.725
-0.788432
-20.2271
-2.68958
-19.7795
-3.39413
-17.6888
-19.6521
-7.50098
-20.3098
-1.01891
-6.97327
-6.07507
-16.5936
-10.395
-11.1472
-4.18396
-21.0012
-0.629879
-14.8078
-14.2832
-7.01265
-18.5956
-6.05219
-18.7394
-4.07186
-4.22637
-14.2244
-5.23602
-21.3751
-0.35344
-8.34845
-8.31627
-9.19765
-3.75698
-12.1819
-15.2135
-13.1117
-17.914
-18.073
-17.0982
-16.4776
-18.4293
-4.35488
-5.361
-18.3764
-16.5082
-18.5457
-0.773028
-20.6647
-8.37317
-17.1991
-10.9939
-6.83847
-10.4921
-10.3874
-17.8825
-6.74124
-8.01377
-13.2585
-10.0614
-10.3725
-5.25232
-18.083
-6.12237
-18.4292
-10.9044
-7.22506
-11.4374
-14.2104
-20.3026
-0.468944
-20.4735
-0.928536
-3.31015
-19.9478
-13.1436
-2.75717
-19.8726
-15.1969
-11.6315
-15.7657
-18.6403
-9.44645
-14.4414
-8.87964
-2.13944
-14.2457
-9.17909
-10.886
-10.5145
-12.0368
-11.961
-16.9834
-19.7646
-3.81592
-19.5701
-3.01876
-15.8656
-19.7477
-20.0621
-2.67828
-1.7495
-17.3167
-11.5985
-19.037
-3.80276
-10.058
-10.1773
-2.89677
-18.5561
-4.51076
-11.0338
-11.08
-3.69393
-19.8048
-10.6114
-16.5137
-3.06311
-16.2332
-13.8985
-17.4473
-10.3039
-19.7381
-6.88809
-14.1858
-17.4621
-16.7353
-6.34921
-18.6453
-6.93953
-10.9159
-11.023
-19.8747
-2.64943
-20.0424
-2.56941
-16.763
-10.2857
-9.96508
-3.98901
-18.9599
-18.642
-17.818
-16.5464
-11.3657
-14.2483
-8.92941
-16.8738
-2.09705
-20.8249
-20.3555
-2.48831
-4.3051
-18.2226
-15.2503
-4.71536
-17.9246
-18.6881
-5.38594
-18.8657
-5.69893
-19.3333
-3.4176
-2.45317
-2.77994
-20.188
-20.2423
-9.62284
-18.8902
-3.44626
-13.6359
-19.2615
-4.35289
-13.4704
-4.52653
-19.4833
-4.14626
-19.3785
-11.8538
-9.77659
-14.2874
-17.8666
-14.0367
-6.24639
-16.7644
-18.2748
-16.1516
-5.41062
-18.0234
-2.31662
-20.3481
-1.85055
-20.3712
-13.9825
-12.4537
-4.67995
-14.0398
-20.9639
0.390599
-4.53475
-18.4849
-12.5367
-4.05772
-18.641
-4.31336
-16.6222
-14.6339
-13.0265
-14.7724
-19.3424
-3.23423
-10.5387
-15.9254
-20.5968
-1.01255
-17.2411
-5.8353
-12.7104
-10.2977
-12.6159
-14.7412
-11.8723
-20.715
-0.649546
-12.42
-11.6844
-0.0808133
-20.976
-5.47895
-16.67
-14.0208
-17.2356
-10.7648
-11.0954
-10.939
-18.2638
-2.11263
-19.8773
-14.5481
-2.78574
-19.7523
-3.09618
-19.972
-12.3387
-1.79725
-20.0727
-13.3767
-11.8976
-9.44175
-14.1922
-5.09398
-17.8007
-12.8726
-20.0342
-2.0812
-2.50675
-19.6186
-18.208
-5.10778
-8.22256
-17.6826
-16.477
-17.622
-15.9763
-17.259
-20.314
-1.41914
-6.29627
-17.3111
-4.26815
-4.85595
-17.1863
-16.7624
-4.08121
-20.5701
0.16566
-1.00962
-1.00653
-21.0607
-20.7301
-19.0676
-12.9639
-11.2519
-18.9582
-3.98292
-17.3457
-17.6618
-3.12392
-10.8345
-3.51774
-19.5582
-7.99047
-16.8813
-18.8244
-7.93245
-19.1242
-15.2997
-19.0907
-7.33758
-18.0502
-3.98953
-3.34251
-16.4385
-10.6355
-6.85652
-10.3216
-11.0686
-18.5112
-13.15
-18.8238
-17.9313
-11.173
-19.5727
-11.8314
-17.305
-13.9868
-15.6878
-15.3709
-10.0711
-2.77867
-11.3644
-14.862
-9.31573
-15.8001
-20.0376
-1.52439
-12.1183
-7.48114
-9.95741
-2.55341
-20.1721
-6.46125
-12.7995
-3.45307
-19.9134
-19.6652
-2.39845
-6.33634
-12.9423
-20.007
-2.73741
-14.3322
-12.7312
-10.7668
-13.4598
-6.26376
-8.86077
-16.9537
-20.1125
-2.52526
-7.68409
-8.16992
-19.621
-1.91255
-2.87105
-20.1986
-11.085
-10.0506
-1.22722
-20.4442
-11.8977
-2.17223
-20.0452
-13.2892
-17.84
-18.5239
-5.20451
-14.3594
-13.8662
-18.2422
-4.32817
-16.0232
-18.1202
-10.5147
-10.9821
-11.6488
-7.47527
-10.9388
-13.1516
-12.7179
-19.2825
-4.23647
-18.9096
-3.32824
-10.2384
-10.4584
-13.6013
-13.0627
-12.2218
-17.0008
-17.9142
-15.0489
-10.112
-12.4255
-11.5155
-12.8382
-11.0312
-4.20287
-19.191
-4.29459
-7.6189
-15.5216
-9.55267
-13.7217
-11.4968
-10.0873
-17.6394
-18.7611
-10.344
-19.0322
-3.49327
-4.40162
-19.2661
-12.4274
-21.5031
-0.105306
-18.8559
-4.74559
-4.20497
-18.5683
-0.935844
-21.216
-9.73013
-14.7838
-7.59411
-1.72424
-20.3226
-18.9939
-3.48237
-6.44403
-11.8334
-16.9312
-6.68324
-19.0086
-10.379
-3.90998
-4.68685
-19.1829
-4.42684
-11.619
-17.3557
-13.2567
-5.82494
-19.1896
-3.61546
-11.2249
-10.7565
-15.5766
-16.064
-11.2365
-12.0501
-7.60645
-13.3341
-4.95474
-18.3313
-11.8819
-4.08611
-18.1704
-4.69912
-6.35557
-5.16953
-11.2048
-18.9569
-16.1485
-16.189
-17.9352
-10.0955
-9.99795
-10.9422
-10.8
-8.11938
-8.92362
-5.09102
-17.4326
-17.4454
-12.8561
-9.21386
-9.34444
-8.7895
-15.7467
-15.769
-15.4418
-16.2135
-15.6099
-16.8424
-6.35597
-17.9273
-18.7216
-11.2876
-9.24784
-12.3631
-8.07681
-6.52545
-8.59841
-5.8511
-10.5004
-1.59625
-20.1421
-15.1348
-9.74439
-6.95688
-11.5328
-10.9863
-16.513
-14.1894
-8.9771
-13.7086
-14.3145
-12.6819
-16.2799
-9.10125
-15.9751
-10.4368
-19.1656
-8.19996
-17.9844
-13.3405
-16.3571
-12.3131
-12.9818
-10.4964
-17.1111
-14.6393
-13.068
-6.51751
-11.0874
-17.548
-3.14148
-9.61437
-12.2068
-11.3691
-10.7736
-17.8256
-15.3665
-6.12957
-14.3782
-12.5862
-12.7835
-10.3267
-3.17067
-19.0526
-19.4381
-4.22026
-18.3019
-7.31299
-6.17482
-18.0552
-5.31325
-18.0903
-10.0042
-15.3572
-9.22966
-4.88319
-18.6988
-4.07344
-14.8315
-15.5604
-19.8784
-2.86713
-20.7479
-0.290557
-19.9274
-2.61482
-4.09918
-16.4279
-8.85111
-20.2028
-2.03229
-11.7252
-12.0237
-4.72569
-7.32092
-15.3151
-6.29923
-10.0187
-13.1614
-3.38473
-15.5555
-14.1238
-15.3893
-13.1175
-17.6084
-6.88876
-7.11331
-9.70375
-8.86414
-9.88862
-8.48056
-15.0089
-7.59645
-14.9845
-9.38069
-8.51201
-20.0394
-1.91129
-13.576
-18.6523
-17.8631
-13.5576
-8.95088
-6.23771
-10.4798
-5.78119
-5.53593
-17.4286
-18.7833
-5.19627
-4.19195
-18.313
-12.339
-10.4534
-14.1739
-14.8499
-12.1944
-0.00272892
-20.2317
-14.4287
-14.9436
-5.9046
-5.01943
-12.1893
-20.1041
-2.23909
-4.26378
-19.6622
-19.6752
-3.97068
-16.7787
-11.8949
-11.1303
-15.728
-15.8404
-1.98562
-20.0502
-16.9089
-1.64459
-1.0056
-20.0018
-21.2385
-4.96318
-16.9638
-11.0661
-18.8043
-4.1666
-1.01493
-20.5218
-20.0526
-2.63126
-5.27642
-2.84919
-19.5091
-12.8824
-1.37299
-20.4487
-18.0225
-9.92513
-6.37284
-7.84319
-19.637
-2.3295
-3.53867
-19.6456
-12.2294
-6.91507
-11.4635
-18.4105
-17.9999
-8.63779
-4.89459
-1.82423
-19.8671
-20.15
-2.46441
-16.1371
-4.2244
-18.3932
-5.26988
-18.5738
-13.0569
-6.02721
-9.28921
-13.79
-18.1731
-10.4083
-7.3291
-7.8048
-19.4612
-3.22824
-8.23272
-6.54238
-5.59801
-17.7782
-11.0907
-6.1309
-18.3095
-10.942
-10.4805
-16.5522
-19.0451
-3.97483
-4.0982
-13.3582
-17.7332
-16.9391
-16.6951
-11.9264
-12.2257
-17.6324
-17.4548
-6.99632
-17.7391
-20.6222
-0.651049
-17.5659
-16.5021
-12.0244
-10.6951
-9.52281
-16.2445
-14.3421
-18.8063
-19.3652
-13.7129
-14.3264
-8.06202
-5.74647
-10.8113
-17.8027
-7.76482
-4.48973
-18.9649
-18.7888
-10.4526
-10.1927
-4.64722
-20.4369
-0.997792
-7.2099
-6.75904
-4.4791
-18.8779
-14.4054
-14.3478
-16.7399
-11.7995
-17.5537
-7.99471
-7.60014
-20.1247
-1.85741
-18.6154
-19.7263
-2.63139
-6.87666
-19.1313
-3.63423
-19.5852
-2.9045
-4.99967
-12.8904
-12.1819
-4.73132
-0.280477
-20.8426
-7.06522
-7.18574
-11.6394
-18.4591
-13.5653
-10.2766
-4.19379
-1.53921
-19.8179
-19.0028
-11.5222
-17.338
-3.99131
-19.0761
-17.7708
-8.63445
-12.9703
-16.3217
-7.51308
-18.8855
-11.3421
-11.5422
-13.6956
-17.5392
-16.9578
-19.6227
-3.20138
-13.5397
-11.8368
-18.3922
-12.1765
-17.5855
-19.873
-2.60614
-12.4387
-18.3051
-9.4949
-6.08836
-8.98404
-13.0727
-3.64509
-19.388
-5.17035
-18.9883
-3.27783
-19.8883
-10.6262
-16.2022
-16.2706
-3.94062
-19.7238
-1.37261
-1.82654
-19.9509
-13.9091
-6.62824
-6.56334
-18.9143
-17.5184
-16.859
-17.3051
-18.3323
-4.37072
-18.3058
-17.4297
-6.02247
-6.96541
-18.1835
-6.65228
-16.3819
-5.28681
-18.7419
-16.8376
-7.10554
-19.9958
-2.12209
-14.0139
-14.0607
-4.59972
-4.84599
-18.9161
-16.9412
-14.3518
-19.1708
-3.7887
-14.733
-16.661
-4.40326
-19.2399
-3.45709
-19.2532
-10.1566
-15.3674
-8.25763
-15.7501
-8.80408
-9.94529
-10.26
-9.02672
-16.5003
-8.92782
-16.2535
-17.6675
-16.2409
-15.8696
-19.6084
-3.43363
-2.79497
-19.7292
-3.50405
-19.7828
-2.58614
-19.2316
-3.79814
-19.6198
-2.86652
-19.2176
-4.83207
-12.4348
-10.3392
-8.3347
-19.8988
-2.13314
-13.3137
-20.3378
-1.21868
-10.5498
-13.1087
-20.2787
-1.74651
-17.7786
-14.2871
-7.14451
-3.85088
-19.776
-11.4302
-11.5343
-20.0008
-2.67169
-20.0486
-1.94284
-7.75818
-19.9633
-2.13711
-16.1986
-6.53214
-4.11318
-10.6786
-10.3806
-4.41222
-10.0451
-15.0852
-4.21282
-18.8695
-16.3216
-7.72909
-4.0359
-18.9536
-2.68908
-20.0839
-14.4795
-13.9851
-15.9291
-10.8448
-16.3872
-10.2236
-19.3737
0.43854
-21.1369
-3.05447
-4.58577
-19.6616
-19.5329
-3.07021
-11.1399
-10.9211
-14.3616
-16.8211
-14.2579
-5.77366
-9.81448
-7.5263
-4.96655
-11.2645
-8.01757
-16.3606
-10.7712
-18.4957
-21.0513
0.753062
-3.81333
-0.855386
-20.0881
-19.0737
-4.75511
-1.618
-20.0337
-12.6344
-11.4221
-6.8642
-17.0402
-14.2589
-12.482
-17.7007
-7.72625
-0.645951
-20.1955
-15.8312
-16.2434
-14.0508
-16.0561
-5.72572
-16.4308
-9.58715
-15.5003
-12.9039
-5.21569
-21.3294
-0.0144923
-3.75694
-19.1605
-19.8391
-2.89804
-17.7228
-16.5655
-12.6946
-11.8089
-1.9013
-20.2874
-19.3379
-3.15015
-7.79567
-14.4315
-4.3315
-19.2705
-3.59937
-16.4695
-18.4204
-5.21388
-18.5474
-9.9419
-19.1614
-3.80883
-11.8609
-4.75728
-12.4525
-13.3466
-16.0277
-7.72224
-18.1199
-10.591
-7.32458
-17.0348
-14.9842
-16.72
-6.31681
-17.0054
-7.13654
-18.0842
-14.4917
-17.7452
-7.93374
-14.0608
-10.7754
-13.5526
-12.6728
-8.46167
-17.3878
-17.2486
-11.0032
-12.2885
-6.03127
-17.4177
-1.72446
-17.4933
-20.0582
-1.5707
-20.0434
-8.36656
-15.3488
-19.4858
-3.5339
-2.83513
-19.614
-11.1572
-12.7861
-3.72634
-19.0813
-6.40995
-12.6839
-3.44871
-19.1931
-11.3304
-17.2975
-10.9219
-20.2872
-0.65084
-0.621058
-20.3294
-20.1956
-0.882347
-0.803214
-20.235
-9.32586
-17.9784
-4.37831
-18.591
-5.23631
-13.497
-10.5479
-12.1872
-17.4838
-12.7483
-18.3238
-4.6631
-5.61373
-18.6973
-3.08775
-10.9395
-16.7396
-16.7724
-18.3558
-8.52078
-10.4292
-2.54284
-2.93402
-20.0799
-20.2063
-3.61676
-19.2363
-6.89353
-7.29026
-7.75297
-17.9693
-10.313
-17.9204
-18.0938
-19.9128
-2.61376
-17.7255
0.761361
-20.8898
-20.1221
-0.963511
-19.044
-3.82004
-15.2454
-12.3376
-12.109
-9.76174
-19.0024
-9.23134
-8.27054
-1.9651
-20.2783
-8.71771
-7.70447
-5.00969
-1.35614
-20.4891
-10.831
-16.8921
-3.20086
-19.4877
-18.5397
-17.0387
-9.95022
-17.9939
-10.7727
-16.267
-13.5888
-13.4831
-20.4477
-1.08441
-10.1774
-9.31446
-9.45887
-16.4537
-11.5951
-4.53089
-13.0931
-15.0703
-13.1786
-11.0512
-11.7172
-20.037
-1.32633
-2.51064
-20.2153
-20.0505
-1.75797
-2.78084
-19.8354
-10.8866
-11.0578
-12.455
-14.9239
-10.3739
-13.3717
-4.16477
-15.7525
-3.63001
-19.0012
-9.69337
-4.14189
-18.7822
-6.26167
-13.5032
-12.8419
-11.0713
-13.7536
-18.1296
-2.21955
-19.7653
-19.9609
-2.69322
-6.61241
-17.8798
-14.0973
-2.92618
-3.15491
-12.7544
-17.7296
-3.86252
-19.0664
-14.739
-16.8044
-7.40131
-15.8331
-8.44638
-19.8474
-0.881162
-17.2258
-18.0162
-6.54279
-7.03868
-18.3345
-18.1505
-5.68582
-6.08658
-18.0725
-18.0199
-20.2311
-1.68485
-17.5756
-14.3256
-13.3367
-7.88452
-19.9604
-2.74913
-0.355696
-21.253
-16.9024
-13.3243
-17.4093
-17.5961
-19.346
-4.43939
-6.66445
-18.9951
-3.35134
-3.82093
-14.2003
-3.64421
-13.9065
-19.3006
-4.44372
-6.94594
-5.77561
-18.9783
-3.51108
-15.8886
-9.04969
-11.283
-15.7339
-7.25627
-18.7698
-4.55888
-16.3702
-7.57065
-19.8966
-3.05997
-13.0473
-19.5627
-2.31279
-10.6069
-15.2559
-9.9595
-0.991185
-20.148
-8.90385
-13.9326
-14.3019
-15.9224
-3.54364
-19.7425
-2.80242
-19.6401
-19.8714
-12.3431
-16.0047
-7.0581
-8.99171
-11.6909
-11.1971
-12.6495
-13.3477
-20.1831
-1.17605
-1.91247
-20.4758
-19.6412
-15.9864
-17.5703
-19.7598
-4.95488
-20.0146
-2.54532
-4.63727
-1.59617
-20.0653
-9.28452
-16.6227
-20.0498
-1.00688
-17.3523
-17.7194
-19.7272
-2.15002
-3.54219
-18.9933
-19.1817
-4.41163
-18.1353
-4.37621
-3.73448
-4.27488
-18.9296
-1.52476
-1.52013
-20.9688
-20.2981
-16.2259
-8.39808
-14.5269
-13.9907
-7.14155
-16.7516
-13.9094
-7.03247
-12.3424
-7.85427
-8.03207
-17.6033
-4.39679
-18.4125
-6.72804
-17.3042
-11.2944
-18.5048
-17.1249
-8.68645
-8.17565
-19.9782
-2.05512
-5.79218
-3.91949
-12.7632
-7.91099
-8.68952
-12.974
-20.7463
-1.0055
-6.51263
-12.6734
-8.54649
-5.84749
-17.1553
-7.16531
-0.308715
-20.5091
-16.6807
-17.873
-2.08067
-19.9863
-13.0681
-18.1695
-7.04581
-19.1322
-19.7237
-2.8659
-16.9202
-19.1348
-2.2327
-19.9124
-8.09849
-17.1457
-19.0299
-4.85119
-18.7261
-3.89039
-15.9028
-18.9204
-3.45105
-7.55771
-18.5573
-14.504
-19.8711
-3.36975
-13.5041
-2.33853
-11.9619
-6.06711
-7.21587
-12.5786
-9.17394
-7.22439
-6.66522
-16.0097
-14.5653
-15.641
-17.6512
-16.9862
-16.7163
-13.9569
-7.79074
-14.9717
-18.3446
-4.18958
-18.0809
-4.76545
-18.9274
-3.79827
-18.7425
-6.03358
-13.2248
-12.3745
-5.45753
-3.28466
-19.361
-6.79046
-1.62339
-20.136
-7.2545
-13.4115
-4.85259
-15.2373
-17.587
-17.1247
-3.00261
-19.7856
-11.4419
-10.1863
-9.90317
-14.6794
-13.817
-17.2335
-19.2503
-4.32312
-7.40844
-18.975
-3.42432
-19.5306
-15.8997
-7.76206
-12.8682
-18.8243
-9.81997
-3.47626
-8.68059
-16.6187
-16.9638
-16.496
-3.88696
-18.6904
-5.97087
-8.02859
-8.79837
-8.46001
-11.8747
-18.6679
-5.22355
-16.4724
-4.35315
-18.3442
-13.3719
-20.1299
-2.12329
-20.1575
-1.45469
-3.7948
-18.9907
-15.2266
-11.4456
-16.7364
-19.1681
-17.7761
-4.61913
-19.1604
-4.95537
-18.9933
-3.61758
-18.7632
-18.6393
-3.92065
-18.5918
-17.3857
-14.4182
-11.5337
-4.17435
-13.6663
-4.47468
-13.6377
-7.03177
-19.1423
-4.6474
-18.3945
-16.4137
-6.73374
-16.9656
-6.41505
-4.68441
-11.9187
-18.2935
-7.51577
-2.15993
-19.7266
-19.962
-2.71471
-17.0727
-21.2678
-0.0437384
-13.6595
-14.1492
-3.87347
-19.329
-18.1765
-6.30995
-7.67355
-7.4007
-18.6269
-10.1613
-11.2697
-14.2435
-12.7884
-13.9768
-3.49565
-18.6218
-19.3345
-11.359
-13.2297
-14.6227
-17.135
-4.47739
-18.8496
-17.7636
-9.13263
-15.821
-7.99501
-20.3606
-0.869361
-7.70399
-20.6154
-1.61081
-1.46908
-20.7708
-20.4906
-0.574899
-16.4996
-8.86049
-2.63497
-19.9721
-17.9946
-6.36428
-12.2552
-5.50027
-17.9646
-19.7431
-1.84117
-8.69179
-20.0798
-2.70838
-18.3202
-17.0488
-12.6744
-21.0059
-0.431035
-4.29272
-8.05412
-8.39854
-6.593
-6.64282
-17.8147
-1.94758
-20.263
-16.9474
-16.4676
-17.31
-5.87865
-11.085
-14.078
-10.9783
-17.5434
-3.8262
-4.38218
-10.6615
-2.38362
-20.2562
-20.0695
-1.32164
-11.7612
-20.1192
-2.83893
-5.51607
-1.60031
-19.8212
-16.4155
-13.3116
-12.8745
-17.4819
-5.69323
-12.5057
-18.1925
-18.5646
-19.78
-20.7385
-2.15389
-2.89481
-4.64982
-16.8843
-17.6636
-6.09148
-6.83774
-18.145
-17.4361
-19.8584
-3.67194
-2.36977
-19.4791
-11.8912
-19.1835
-5.42167
-16.8179
-19.9253
-3.8016
-2.22617
-19.3932
-11.3783
-18.9621
-4.30799
-19.132
-3.77407
-18.8142
-5.08998
-18.8156
-3.94618
-14.1325
-17.8716
-2.75409
-19.6158
-16.0218
-15.7986
-12.8447
-16.7265
-19.7465
-4.70792
-19.6722
-20.1485
-1.12465
-20.0481
-2.74808
-5.77404
-18.9685
-15.757
-4.52111
-19.5821
-15.5122
-19.5586
-4.19718
-12.1148
-13.5498
-10.7992
-9.68446
-11.2369
-1.87392
-19.8795
-17.7192
-16.1956
-19.8711
-1.94837
-2.48505
-19.7976
-19.4633
-3.54726
-10.2715
-10.0099
-16.3414
-4.97892
-19.3581
-17.3679
-7.95887
-19.2933
-4.64608
-8.71396
-18.8342
-5.22601
-13.545
-16.687
-6.29297
-17.9395
-5.08053
-14.8863
-9.11977
-6.03356
-14.3369
-2.77563
-19.2633
-3.60382
-19.6491
-20.2047
-2.08419
-9.87451
-2.32561
-19.7171
-5.44383
-17.2346
-4.64905
-17.7061
-6.61442
-7.82109
-13.2974
-5.91318
-2.2975
-19.7696
-17.7606
-6.86347
-15.7075
-15.5725
-5.74983
-17.9124
-16.3101
-14.8622
-6.01965
-17.6541
-3.11558
-6.91166
-18.5076
-14.7797
-5.94537
-18.0469
-6.19573
-17.6745
-17.2605
-3.14991
-18.4068
-1.05828
-20.595
-1.10842
-20.4786
-10.0931
-20.306
-0.589159
-16.6673
-16.0825
-17.5545
-17.5946
-18.0784
-16.5013
-14.8488
-10.8484
-11.7956
-4.46743
-10.9089
-11.0207
-17.0473
-16.2038
-15.9018
-14.0009
-18.3281
-11.6432
-4.1536
-2.08979
-20.1109
-12.9957
-4.52889
-1.55138
-20.3558
-19.1558
-4.36678
-3.402
-19.176
-6.70903
-18.2431
-4.34791
-4.06028
-19.682
-19.6598
-9.75558
-1.5464
-20.9357
-20.8086
-1.50003
-18.0196
-7.75641
-18.4219
-7.50636
-17.2175
-8.52307
-13.1901
-17.7935
-7.58839
-12.9817
-16.2975
-17.8843
-7.31048
-2.10815
-20.3985
-14.8269
-0.931921
-20.2379
-10.7953
-12.2668
-11.9639
-20.2725
-1.03115
-14.8623
-15.2945
-14.697
-14.9626
-10.572
-10.1909
-14.2172
-14.9135
-20.2172
-1.98661
-1.29319
-20.4829
-0.701503
-20.2397
-12.4885
-14.9208
-12.559
-8.49804
-8.64698
-19.3257
-18.9702
-16.8961
-14.2897
-14.2655
-16.0518
-15.1366
-15.1434
-15.8424
-11.532
-3.12784
-10.1213
-16.78
-16.6808
-19.7737
-12.5485
-11.06
-4.20966
-15.8629
-7.63824
-18.2052
-6.85329
-16.8882
-7.87783
-7.12422
-3.5279
-19.3176
-3.69938
-2.7143
-19.5789
-10.918
-19.3234
-3.59261
-19.0106
-4.63747
-18.5603
-18.111
-12.8661
-16.7394
-8.02405
-11.4671
-0.148409
-20.8
-10.5161
-8.55456
-7.94414
-15.3837
-19.9358
-19.6403
-8.46524
-7.0354
-9.81821
-8.9329
-15.8543
-8.99732
-14.8715
-9.65561
-12.8497
-19.4294
-3.14346
-19.1103
-3.576
-18.6007
-5.2036
-3.03955
-19.9639
-13.14
-19.6579
-2.13422
-16.9868
-12.8602
-11.0702
-10.3352
-17.8593
-9.88198
0.064378
-20.9007
-17.514
-15.747
-15.3258
-2.19776
-20.1852
-20.1599
-1.41016
-11.403
-13.3825
-3.23904
-3.63519
-17.2278
-15.6505
-14.1035
-12.2777
-17.5053
-20.2834
-2.05534
-2.04072
-20.2678
-20.1709
-1.95942
0.101566
-20.89
-11.6266
-18.1259
-6.92963
-5.83982
-17.6967
-4.6662
-8.57792
-9.73035
-5.50974
-7.43055
-8.50232
-15.8685
-18.3961
-4.74663
-19.4832
-3.12467
-15.4549
-20.2521
-0.871888
-16.4759
-19.9719
-1.92901
-5.00949
-15.7734
-2.32167
-19.9643
-14.57
-4.77647
-5.19473
-1.58177
-20.3019
-15.5861
-20.2461
-1.69569
-7.4438
-2.21793
-20.3445
-1.88645
-20.4112
-18.5039
-18.447
-10.7105
-18.3608
-17.7973
-13.3643
-1.53356
-1.59552
-20.3713
-20.5754
-3.23367
-19.2508
-14.8147
-6.98918
-9.2849
-17.1318
-16.5985
-19.8756
-19.6405
-18.2978
-8.26852
-8.10305
-19.922
-2.25461
-18.6199
-19.742
-19.6194
-2.27684
-1.71005
-20.0433
-19.9525
-1.86724
-19.544
-3.22539
-2.533
-4.78465
-13.6199
-12.5218
-4.37677
-9.5217
-15.316
-15.7302
-10.1627
-5.57304
-8.02805
-8.4249
-9.21268
-11.8669
-11.8711
-12.2358
-12.3668
-3.35258
-17.1479
-3.81885
-10.0969
-9.60517
-7.83339
-16.1595
-16.2247
-12.4247
-8.46273
-4.72358
-19.7664
-3.25467
-10.6139
-2.45767
-19.856
-19.7082
-3.30441
-16.8586
-2.57538
-19.7868
-2.73755
-19.9252
-12.9855
-12.7816
-15.2874
-19.9007
-19.8345
-3.91988
-3.61804
-4.72385
-4.69088
-9.4023
-9.89933
-6.11661
-15.9067
-15.0281
-9.94386
-17.4674
-20.069
-2.76473
-6.91127
-5.39502
-17.3188
-16.6905
-10.6012
-6.71269
-7.45577
-9.02831
-15.9133
-10.3347
-10.2959
-14.9633
-8.33286
-15.1571
-14.8956
-3.32668
-19.6395
-7.92409
-17.5154
-8.36236
-17.718
-6.87322
-16.8533
-7.33644
-16.5208
-12.483
-20.0809
-1.73465
-19.9674
-10.6098
-2.05265
-14.5323
-17.2619
-18.1925
-10.5744
-17.8116
-14.649
-13.822
-7.51306
-10.9235
-10.1499
-9.7498
-11.2888
-11.8612
-13.3828
-3.50941
-19.0947
-4.59917
-18.3938
-10.762
-18.2919
-14.0251
-13.8294
-8.32785
-4.4161
-19.2435
-7.13823
-18.8265
-3.5019
-6.62757
-16.283
-9.11522
-8.82952
-10.9109
-17.8796
-12.9168
-9.00326
-3.0827
-19.4321
-12.7905
-6.42477
-8.69522
-18.008
-18.5411
-10.4755
-9.49664
-10.1556
-18.1981
-14.717
-17.037
-10.3947
-12.3148
-6.41498
-10.6658
-11.2094
-19.0609
-19.8859
-3.1818
-19.9085
-3.40524
-5.56819
-5.60795
-10.2407
-11.3004
-1.0546
-20.2698
-0.995862
-20.1995
-10.588
-14.3433
-15.2139
-2.07251
-19.9347
-2.24729
-19.9498
-13.3754
-10.0286
-10.6087
-6.55341
-13.7854
-16.708
-10.1955
-10.0636
-3.82509
-19.5725
-20.0784
-1.48813
-1.31997
-20.0225
-19.1872
-2.90902
-18.2619
-12.3334
-3.50123
-19.684
-2.63665
-19.6671
-15.9632
-15.8874
-16.3314
-16.7398
-15.0696
-6.61222
-9.79277
-12.0266
-15.6289
-10.3958
-14.6316
-18.0487
-5.13586
-15.9631
-15.7014
-6.18028
-18.1436
-17.9494
-17.697
-16.9856
-9.57578
-18.4004
-18.5665
-15.3901
-10.5417
-10.6384
-16.362
-13.6795
-16.5381
-16.2893
-10.2995
)
;

boundaryField
{
    frontandback
    {
        type            empty;
    }
    simetry
    {
        type            symmetry;
    }
    inlet
    {
        type            zeroGradient;
    }
    outlet
    {
        type            fixedValue;
        value           uniform 0;
    }
}


// ************************************************************************* //
