/*--------------------------------*- C++ -*----------------------------------*\
  =========                 |
  \\      /  F ield         | OpenFOAM: The Open Source CFD Toolbox
   \\    /   O peration     | Website:  https://openfoam.org
    \\  /    A nd           | Version:  7
     \\/     M anipulation  |
\*---------------------------------------------------------------------------*/
FoamFile
{
    version     2.0;
    format      ascii;
    class       surfaceScalarField;
    location    "0.05";
    object      phi;
}
// * * * * * * * * * * * * * * * * * * * * * * * * * * * * * * * * * * * * * //

dimensions      [0 3 -1 0 0 0 0];

internalField   nonuniform List<scalar> 
3982
(
1.16199e-06
-4.56925e-07
-7.05062e-07
-1.19383e-06
4.94549e-07
6.99284e-07
1.21082e-06
-4.97091e-07
-7.13729e-07
-1.16835e-06
4.59991e-07
7.08357e-07
-1.2152e-06
7.71759e-07
4.43444e-07
1.26954e-06
-9.03813e-07
-3.65726e-07
1.35678e-06
-8.46516e-07
-5.10268e-07
-1.33454e-06
8.56143e-07
4.78392e-07
5.24471e-07
-1.24916e-06
7.24687e-07
-7.84277e-07
-4.30926e-07
3.91447e-07
8.78092e-07
-8.10529e-07
-5.24006e-07
9.157e-07
4.41083e-07
1.01704e-06
-9.0606e-08
-9.26432e-07
-9.96091e-07
8.40776e-08
9.12013e-07
1.01726e-06
-8.761e-08
-9.2965e-07
6.82597e-07
-1.25795e-06
5.75356e-07
-5.45226e-07
1.19398e-06
-6.48753e-07
-1.28556e-06
6.35826e-07
6.49737e-07
1.28449e-06
-6.28905e-07
-6.55585e-07
-1.23389e-06
5.23742e-07
7.10151e-07
-1.15266e-06
5.34058e-07
6.18602e-07
9.42527e-07
3.04391e-07
-1.24692e-06
3.46533e-08
9.07873e-07
-2.96026e-07
-8.97807e-07
5.00283e-07
6.61704e-07
9.93633e-07
1.94679e-07
-1.18831e-06
-9.75539e-07
-2.41619e-07
1.21716e-06
1.06795e-06
-1.16621e-06
9.82566e-08
9.5972e-07
1.86166e-07
-1.14589e-06
7.55538e-07
-1.26785e-06
5.1231e-07
2.9176e-07
9.19059e-07
-4.99001e-07
-6.69346e-07
5.46652e-07
-1.10587e-06
5.59215e-07
-5.42918e-07
1.11847e-06
-5.75554e-07
9.93633e-07
-9.75539e-07
9.71765e-07
2.41324e-07
-1.21309e-06
-9.62581e-07
-2.20978e-07
1.18356e-06
-1.34834e-06
9.0139e-07
4.46954e-07
-9.76363e-07
-2.01406e-07
1.17777e-06
-1.46197e-06
7.00261e-07
7.61705e-07
-8.58678e-07
-4.89666e-07
-2.57269e-07
1.07663e-06
-8.19364e-07
2.43895e-07
-1.09306e-06
8.49166e-07
-9.62581e-07
9.71765e-07
-7.98953e-07
-3.90665e-07
1.18962e-06
7.40045e-07
3.65994e-07
-1.10604e-06
-7.31769e-07
-4.03236e-07
1.13501e-06
-5.48005e-07
9.23123e-07
-3.75118e-07
4.38975e-07
-9.8698e-07
-5.06896e-07
-5.30913e-07
1.03781e-06
-7.08873e-07
1.33992e-06
-6.31049e-07
7.12502e-07
-1.34303e-06
6.30526e-07
1.18347e-06
-1.03998e-06
-1.43482e-07
7.09587e-07
-1.34109e-06
6.31501e-07
-7.11163e-07
1.33875e-06
-6.27582e-07
1.17354e-07
-8.26227e-07
-1.17715e-07
8.30217e-07
9.61451e-07
1.96652e-07
-1.1581e-06
1.28311e-06
-3.21659e-07
-1.21729e-07
8.31315e-07
1.11744e-07
-8.22908e-07
-5.23288e-07
-7.16236e-07
1.23952e-06
-1.03553e-06
-1.70962e-07
1.20649e-06
3.86877e-07
-1.42241e-06
4.65423e-07
7.34207e-07
-1.19963e-06
6.38676e-07
4.99104e-07
-1.13778e-06
-6.66667e-07
-4.29063e-07
1.09573e-06
-3.10771e-07
-8.5523e-07
-6.06735e-07
-1.24926e-07
1.47202e-06
-1.3471e-06
1.31386e-07
-1.4653e-06
1.33392e-06
-1.25738e-07
1.46709e-06
-1.34135e-06
1.29479e-07
-1.46634e-06
1.33686e-06
1.43991e-07
8.73047e-07
-4.38283e-07
-5.63189e-07
1.00147e-06
-1.2601e-07
-8.70081e-07
1.37001e-07
8.80258e-07
-9.23588e-07
-4.26819e-08
9.6627e-07
-1.06392e-06
1.40335e-07
-8.2194e-07
-3.3072e-07
9.26657e-07
3.73615e-07
-1.30027e-06
-1.03426e-06
-1.5419e-07
1.18845e-06
1.36246e-06
-8.37988e-07
-1.03357e-06
1.1163e-06
-8.27276e-08
-1.21855e-06
6.80247e-07
5.38305e-07
-2.50947e-07
1.17333e-06
-9.22382e-07
-1.12481e-06
6.01525e-07
-5.99592e-07
1.16639e-06
-5.66799e-07
-6.14991e-07
1.17206e-06
-5.57067e-07
5.92847e-07
-1.12685e-06
5.34001e-07
3.97685e-07
-9.97277e-07
-7.08366e-07
1.21321e-06
-5.04843e-07
-4.32574e-07
1.02542e-06
3.83162e-07
-9.98153e-07
9.10955e-08
-9.60835e-07
8.6974e-07
7.51096e-07
-1.16319e-06
4.12094e-07
1.28812e-06
-6.99868e-07
-5.88252e-07
1.13245e-06
-2.35773e-07
-8.96679e-07
-9.25869e-07
2.59202e-07
5.01115e-07
8.38073e-07
-1.33919e-06
-5.8316e-07
1.08427e-06
1.83003e-07
8.8495e-07
3.52242e-07
5.41936e-07
-8.94178e-07
-3.97978e-07
-5.18133e-07
9.1611e-07
7.73692e-07
1.33374e-06
-8.59138e-08
-1.24782e-06
2.6054e-07
1.0732e-06
3.58919e-07
5.46257e-07
-9.05177e-07
-3.88937e-07
-5.14326e-07
9.03263e-07
-1.36538e-06
1.15368e-07
1.25001e-06
-2.90663e-07
-1.07472e-06
-4.07765e-07
-5.00388e-07
9.08153e-07
5.51604e-07
-9.89887e-07
4.27265e-07
4.69509e-07
-8.96775e-07
-1.36022e-06
3.25959e-07
-5.90685e-07
1.44293e-06
-8.5225e-07
-1.35127e-06
8.44374e-07
-3.7068e-07
1.23174e-06
-8.61064e-07
4.49181e-07
-1.03987e-06
-6.28924e-07
1.44084e-06
-8.11913e-07
4.59695e-07
-1.08862e-06
6.11369e-07
6.73121e-07
-6.14649e-07
-6.70913e-07
-1.58533e-06
7.86374e-07
1.51989e-06
-7.79845e-07
-1.52702e-06
7.95251e-07
9.48646e-07
-1.15988e-06
2.11239e-07
-9.60794e-07
1.20884e-06
-2.48042e-07
-9.61604e-07
1.20887e-06
-2.47261e-07
9.51152e-07
-1.16343e-06
2.12277e-07
4.27348e-07
4.07145e-07
-8.34493e-07
-4.15199e-07
-4.27124e-07
8.42323e-07
-8.95751e-07
3.59773e-08
8.59773e-07
-1.04855e-06
1.01376e-06
3.47872e-08
-6.48026e-07
1.31771e-06
-6.69688e-07
-1.44628e-06
3.5298e-07
1.0933e-06
1.43246e-06
-4.78762e-07
-9.53701e-07
-1.46847e-06
5.06595e-07
9.6188e-07
1.41873e-06
-3.46113e-07
-1.07262e-06
-1.21705e-06
2.00273e-07
1.01678e-06
-1.37124e-06
-3.24789e-07
-6.53164e-07
9.77953e-07
1.13504e-06
-7.49156e-07
-3.85888e-07
-1.11733e-06
7.48261e-07
3.69073e-07
1.03671e-06
3.94532e-07
-1.43124e-06
-5.78542e-07
-5.38791e-07
5.81963e-07
5.53081e-07
1.20284e-07
-8.90239e-07
7.69955e-07
-1.3439e-07
8.88161e-07
-7.53771e-07
9.00452e-07
2.47742e-07
-1.14819e-06
-4.51525e-07
1.35198e-06
-7.54213e-07
8.71567e-07
7.65394e-07
-8.83109e-07
-8.31595e-07
-3.86958e-07
7.62368e-07
-8.84097e-07
-7.57497e-07
8.69241e-07
-5.28982e-07
-3.95459e-07
9.24441e-07
8.08393e-07
-4.61076e-08
-7.62285e-07
-8.17396e-07
5.38106e-08
7.63586e-07
5.08563e-08
-6.6317e-07
6.12313e-07
9.20579e-07
-8.69722e-07
-3.29717e-07
-5.44662e-07
8.74378e-07
2.96456e-07
5.69147e-07
-8.65603e-07
6.04188e-07
-9.51221e-07
3.47033e-07
-1.42913e-06
7.75788e-07
6.53342e-07
-1.38866e-06
1.26232e-06
1.26346e-07
-6.92769e-07
1.26897e-06
-5.76202e-07
-1.04906e-06
7.19339e-07
1.04111e-06
-7.44649e-07
5.4496e-08
-9.03265e-07
8.48769e-07
6.63526e-07
-6.0903e-07
5.21705e-07
3.73504e-07
-8.95209e-07
-5.24849e-07
-3.7445e-07
8.99299e-07
-3.56745e-07
8.7845e-07
3.83048e-07
-9.07897e-07
-7.59348e-07
1.00324e-06
7.10932e-07
-9.68201e-07
-1.17979e-06
8.09107e-07
-5.73308e-07
1.16354e-06
-5.90232e-07
-9.95319e-07
8.6004e-07
1.35279e-07
1.26326e-06
2.29719e-08
-1.28623e-06
-1.25216e-06
-3.82656e-08
1.29042e-06
8.24976e-07
-1.00529e-06
1.80316e-07
1.35279e-07
-8.28048e-07
6.61602e-07
5.69602e-07
-1.2312e-06
-6.03436e-07
-4.11175e-07
1.01461e-06
1.18202e-06
-1.18202e-06
-8.05456e-07
1.03938e-06
-2.3392e-07
-9.16141e-07
-5.12989e-07
-1.18618e-06
1.18618e-06
5.73444e-07
-1.15671e-06
5.83268e-07
6.72309e-08
-8.98825e-07
-5.90852e-07
9.44711e-07
-3.53859e-07
-8.70239e-07
1.283e-07
7.41938e-07
-2.37794e-07
-6.78348e-07
7.5211e-07
2.84598e-07
-1.04331e-06
1.73074e-07
-4.40848e-07
-8.11311e-07
4.26611e-07
8.36648e-07
-9.09275e-07
3.66357e-07
9.04684e-07
-3.58032e-07
-5.3551e-07
1.11899e-06
-5.83478e-07
4.0643e-07
-9.4194e-07
-5.16204e-07
-6.90788e-07
1.20699e-06
2.1337e-08
-1.05491e-06
5.69604e-08
9.0276e-07
-5.97996e-08
-9.16563e-07
-8.52315e-07
8.44884e-07
-1.07875e-06
2.26433e-07
1.0691e-06
-2.24214e-07
-1.13652e-06
3.31069e-07
9.25125e-07
-3.51681e-07
3.35988e-07
8.46029e-07
-5.8912e-07
-8.57157e-07
5.80883e-07
8.51579e-07
5.68824e-07
8.49909e-07
-6.08642e-07
-8.59833e-07
2.91104e-07
8.09746e-07
-1.10085e-06
-5.59086e-07
8.5019e-07
-3.37194e-07
-8.48987e-07
-9.15721e-08
-9.03747e-07
1.05853e-06
-8.88144e-07
-1.7039e-07
-5.04904e-07
1.28104e-06
-7.76133e-07
-1.24758e-06
7.42678e-07
7.22051e-07
-1.25942e-06
5.37366e-07
-1.30455e-06
7.80526e-07
5.24025e-07
1.28921e-06
-6.06316e-07
-6.8289e-07
-1.16288e-06
1.03158e-06
1.31303e-07
-5.16332e-07
1.15501e-06
-6.06818e-08
1.11922e-06
8.37595e-08
1.25616e-06
-7.27505e-08
-1.27028e-06
-7.24315e-08
-1.26866e-06
8.37721e-08
1.25497e-06
9.69642e-07
-6.174e-07
-9.65152e-07
5.67174e-07
1.06925e-06
-2.59501e-07
9.78624e-07
-6.19705e-07
-9.60891e-07
5.71954e-07
1.15007e-06
-1.56309e-07
8.7836e-07
1.57203e-07
9.12045e-07
3.99198e-08
-9.23773e-07
8.83853e-07
2.65582e-08
-9.25891e-07
8.99332e-07
-3.15903e-08
9.21586e-07
-8.89996e-07
-4.24364e-08
9.20857e-07
-8.7842e-07
-1.17312e-06
1.24566e-07
-7.58169e-07
-4.90989e-07
-6.71721e-07
-5.01395e-07
-9.64405e-07
4.35423e-07
-5.95455e-07
7.84575e-07
-1.02639e-06
2.41816e-07
1.75941e-07
-9.88529e-07
8.12588e-07
-7.47896e-07
-2.47561e-07
9.95457e-07
-3.86529e-07
-9.64741e-07
6.71093e-07
-9.2204e-07
1.12424e-06
-6.58818e-07
-8.27049e-07
1.01322e-06
-7.89273e-07
-3.76936e-07
-7.75963e-08
8.99869e-07
-8.22273e-07
-5.7732e-07
1.31153e-06
-9.94916e-07
1.23644e-06
-2.4152e-07
9.77108e-07
-1.22602e-06
2.48909e-07
5.00499e-07
2.90391e-07
-7.9089e-07
8.29356e-07
-1.03076e-06
9.78531e-07
-1.22555e-06
2.47024e-07
-9.89732e-07
1.23385e-06
-2.44115e-07
-2.81972e-07
9.51328e-07
-6.69356e-07
-7.06877e-07
6.38956e-07
-1.34583e-06
8.77418e-07
4.10702e-07
-2.44836e-07
-1.14383e-06
-1.16085e-07
-9.89782e-07
1.11869e-07
1.0066e-06
5.47196e-07
-1.37443e-06
8.2723e-07
4.61006e-07
-1.21972e-06
7.58715e-07
-5.81642e-07
1.4612e-06
-8.79558e-07
-5.00909e-07
1.29149e-06
-7.90581e-07
-1.35626e-06
5.88756e-07
7.675e-07
5.57779e-07
4.55983e-07
-8.39382e-07
5.5741e-07
-1.15641e-06
1.15445e-06
1.96424e-09
1.16568e-06
-1.17655e-06
1.08705e-08
-1.3749e-06
9.42327e-07
-5.9003e-07
1.09053e-06
-9.76353e-07
-1.80062e-07
9.91962e-07
1.73721e-07
3.76679e-07
-1.0484e-06
1.13954e-06
-7.12272e-07
-1.18358e-06
7.68384e-07
1.22983e-06
-2.04261e-07
-1.02557e-06
-1.10282e-06
6.95056e-07
1.20805e-06
-7.80698e-07
1.36237e-06
-9.64689e-07
-6.696e-07
7.89883e-07
6.57489e-07
-7.91879e-07
-1.25543e-06
1.10854e-06
1.46891e-07
1.35442e-06
-9.71256e-07
7.31251e-07
5.3772e-07
-3.92051e-07
-8.63383e-07
-1.10313e-06
1.29282e-06
-1.89692e-07
2.43667e-07
7.33441e-07
-2.57249e-07
-7.37667e-07
-2.53905e-07
-7.35827e-07
2.44417e-07
7.34114e-07
-2.11552e-07
6.4667e-07
9.9508e-07
-1.22143e-06
2.26346e-07
1.43619e-07
1.21876e-06
1.23706e-06
-1.04603e-07
-1.91079e-07
1.09027e-06
-8.99194e-07
1.88665e-07
-1.07497e-06
8.86307e-07
4.90256e-07
5.52606e-07
-1.04286e-06
1.30026e-07
1.22439e-06
-1.31164e-06
9.72032e-07
3.39608e-07
6.1251e-07
3.93093e-07
-1.0056e-06
-5.15508e-07
-5.11561e-07
-5.35921e-07
9.8648e-07
-4.50559e-07
-9.98222e-07
9.66902e-07
4.76033e-07
8.82091e-07
-8.31115e-07
-5.09759e-08
-4.14283e-07
-7.71169e-07
1.18545e-06
-9.61766e-07
-5.26674e-08
1.01443e-06
-1.2673e-06
3.05537e-07
9.7408e-07
4.66757e-07
-7.43267e-07
1.38222e-06
4.64196e-07
-1.20746e-06
6.50957e-07
3.84382e-07
-1.03534e-06
3.97734e-07
7.7574e-07
-1.17347e-06
3.39853e-07
-9.68758e-07
-3.2599e-07
9.61816e-07
1.1805e-06
-8.40646e-07
-1.15582e-06
8.29826e-07
-1.29644e-06
4.03529e-07
8.92911e-07
-4.16366e-07
-8.80074e-07
6.4671e-07
3.84962e-07
-1.03167e-06
-6.44516e-07
-3.87901e-07
1.03242e-06
-3.47018e-07
1.17199e-06
1.12519e-06
-3.35165e-07
-7.90023e-07
1.13281e-06
-3.29799e-07
-8.03016e-07
-1.11059e-06
3.30111e-07
7.80476e-07
-9.56763e-07
1.29715e-07
-9.72955e-07
1.56136e-07
8.16819e-07
1.28279e-06
-9.05019e-07
-3.77767e-07
-5.14401e-07
-8.41854e-07
-4.03211e-07
-5.69744e-07
-9.55882e-07
6.31092e-07
1.07766e-06
-8.77305e-09
-1.06888e-06
9.62784e-07
-1.33428e-07
-1.10808e-06
1.03133e-06
7.67536e-08
6.20142e-07
-1.19746e-06
-1.17087e-06
1.10774e-06
6.31231e-08
-1.19429e-06
1.13202e-06
6.22747e-08
1.16006e-06
-1.08803e-06
-7.20318e-08
1.19482e-06
-1.13566e-06
-5.91597e-08
-7.86838e-07
8.57915e-07
-7.10763e-08
1.38249e-06
-4.24657e-07
-9.57833e-07
-1.40202e-06
8.24353e-07
5.77671e-07
-1.357e-06
4.17238e-07
9.39766e-07
1.43641e-06
-8.40414e-07
-5.95998e-07
-4.69595e-07
9.93338e-07
-1.86282e-07
8.47883e-07
-8.79076e-07
-3.15219e-07
-8.8418e-07
-2.86685e-07
8.75604e-07
2.84453e-07
8.73445e-07
3.2137e-07
4.49354e-08
-9.40686e-07
1.11404e-06
-3.2946e-07
4.37197e-07
-9.82422e-07
-1.0762e-06
-7.96119e-08
1.09345e-06
8.70537e-08
4.7042e-07
-1.28461e-06
8.14191e-07
-4.87939e-07
1.29303e-06
-8.05096e-07
-4.79689e-07
1.28817e-06
-8.08483e-07
4.75822e-07
-1.28577e-06
8.09949e-07
8.40974e-07
-8.34776e-07
3.3835e-07
-8.34842e-07
8.39509e-07
4.62976e-07
-1.14143e-06
6.78454e-07
-9.69514e-07
5.28688e-07
4.40826e-07
-8.70822e-08
-9.89122e-07
8.11325e-08
1.01231e-06
9.59995e-07
-4.01077e-08
-9.19888e-07
5.48763e-07
-1.13961e-06
9.15959e-07
-1.21284e-06
2.96883e-07
-9.14053e-07
1.22311e-06
-3.0906e-07
-5.64744e-07
1.16893e-06
1.08677e-06
-5.87666e-07
-9.27876e-07
1.10763e-06
-1.79758e-07
-1.04531e-06
7.6634e-07
-1.12308e-06
3.56744e-07
-7.17733e-07
1.01306e-06
-2.95325e-07
6.89431e-07
-9.91582e-07
3.02151e-07
-7.74816e-07
1.13907e-06
-3.6425e-07
-1.01503e-06
5.14644e-07
1.11932e-06
-1.19649e-06
1.19603e-06
-1.12093e-06
-5.62527e-08
9.8291e-07
-9.97461e-07
5.09523e-07
9.80028e-07
-5.09608e-07
-9.87598e-07
5.07909e-07
9.87608e-07
-5.11786e-07
9.86366e-07
-5.16857e-07
-8.47784e-07
-1.21729e-07
9.15959e-07
-9.14053e-07
5.60351e-07
5.591e-07
-5.60439e-07
7.88638e-07
-2.5458e-07
3.63182e-07
-9.3649e-07
9.23103e-07
-5.24301e-07
-3.98803e-07
-3.75967e-07
9.64723e-07
1.22723e-06
-2.57583e-07
-1.2214e-06
2.56246e-07
-1.21438e-06
2.5349e-07
1.23101e-06
-2.5239e-07
8.85606e-07
-1.0895e-06
2.03893e-07
4.99201e-07
-1.03512e-06
-1.22985e-06
6.86588e-07
5.43264e-07
-1.02676e-08
-1.38754e-09
-8.5846e-07
1.28132e-06
-4.2286e-07
1.23393e-06
-7.02159e-07
-5.31772e-07
-8.89406e-07
1.10328e-06
-2.13871e-07
9.11493e-07
-5.04348e-07
-9.38086e-07
5.10962e-07
3.65574e-07
8.43261e-07
-3.73472e-07
-7.86413e-07
3.62151e-07
8.46714e-07
-3.77332e-07
-7.86098e-07
-7.55823e-07
-1.06502e-06
8.29242e-07
7.37428e-07
4.30479e-07
-9.72438e-07
5.41959e-07
-4.19609e-07
9.7317e-07
-5.53561e-07
-1.20655e-06
1.34828e-07
1.07172e-06
1.20138e-06
-1.21906e-07
-1.07948e-06
-6.43886e-07
-1.05488e-06
6.78911e-07
-1.223e-06
1.68124e-07
-3.96497e-07
1.40492e-06
-1.00842e-06
-9.17156e-07
4.20066e-07
8.82445e-07
-4.22454e-07
-8.85914e-07
4.28989e-07
9.0558e-07
-4.11031e-07
-2.14385e-07
-7.13491e-07
9.84638e-07
-1.10105e-06
9.44746e-07
-1.04452e-06
4.09481e-07
-1.06264e-06
-8.58016e-07
-3.21772e-07
3.8675e-07
-1.1413e-06
7.54553e-07
8.11374e-07
1.80615e-07
-9.91989e-07
-6.72094e-07
7.08071e-07
7.66581e-07
-7.29774e-07
1.11652e-06
-5.46323e-07
8.36714e-07
-7.8148e-07
1.19096e-06
1.0599e-06
-2.51509e-07
-1.06085e-06
2.4345e-07
-4.56298e-07
8.4068e-07
8.08131e-07
3.26014e-07
-7.69729e-07
-3.17171e-07
6.11257e-07
2.70833e-07
7.46989e-07
-5.71048e-07
-7.17636e-07
-1.72603e-07
7.20139e-07
1.68022e-07
1.35631e-06
4.87782e-07
-1.09122e-06
-4.53222e-07
8.38184e-07
4.55151e-07
-8.43051e-07
-9.36284e-07
5.2511e-07
-8.94262e-07
-3.73586e-07
5.69818e-07
-7.48215e-07
6.70619e-07
-1.27189e-06
9.61425e-07
3.10465e-07
-3.00998e-07
-9.70892e-07
1.31875e-06
5.2241e-07
-1.04952e-06
5.27105e-07
-3.22688e-07
8.45097e-07
-9.99768e-07
5.80158e-07
1.00403e-06
-5.7355e-07
1.13115e-06
-1.14142e-06
-1.10634e-06
1.10495e-06
1.00057e-06
-4.30971e-07
-8.02075e-07
5.54514e-07
8.46703e-07
5.35787e-07
-8.37129e-07
-5.64895e-07
8.34829e-07
3.66553e-07
-8.5768e-07
-3.48868e-07
8.61032e-07
5.7538e-07
-8.22315e-07
-5.3469e-07
9.87349e-07
-2.67211e-07
-9.84501e-07
2.66865e-07
3.06355e-07
-1.21137e-06
-1.12518e-06
1.15061e-06
-2.5428e-08
1.09595e-06
-1.10087e-06
4.91506e-09
-1.11052e-06
8.77433e-07
2.33088e-07
-1.10411e-06
8.83088e-07
2.21018e-07
-1.33328e-07
3.27147e-07
9.09909e-07
-2.54009e-07
5.48501e-07
4.58548e-08
-3.55658e-08
4.47006e-07
-1.27117e-06
8.24168e-07
9.73044e-07
-5.26037e-07
-5.59029e-07
5.10951e-07
3.49089e-07
-4.65247e-07
-3.65867e-07
1.2109e-06
-5.9076e-07
2.79526e-07
8.16988e-07
1.06115e-07
4.41532e-08
-2.29025e-08
9.38039e-07
-7.55036e-07
-1.05273e-07
-1.3317e-06
5.73345e-07
7.58354e-07
9.71452e-07
2.39449e-07
4.63897e-07
-1.22703e-06
7.63132e-07
-1.01346e-06
-2.98183e-07
1.17499e-06
-1.79532e-07
2.19287e-08
-9.8667e-07
-5.00115e-07
-7.22887e-07
-1.14714e-06
9.76173e-07
-1.04107e-06
-2.1835e-07
-1.21771e-06
1.14893e-07
1.22672e-06
-1.86703e-08
1.22811e-06
-8.85697e-08
-1.205e-06
2.14141e-08
-2.09995e-07
-8.31072e-07
4.42567e-07
-9.42682e-07
-3.79804e-07
1.18794e-06
3.76068e-07
-1.1458e-06
1.10478e-07
8.49518e-07
-1.33047e-06
1.83337e-07
8.80654e-07
1.97004e-07
1.22386e-06
-9.76117e-07
-1.2249e-06
6.93184e-07
5.31716e-07
-1.54557e-07
8.01228e-07
8.8208e-07
-1.00007e-06
1.17985e-07
1.29145e-06
-6.75868e-08
-7.23803e-07
1.06215e-06
6.02841e-07
-5.9435e-07
-6.3055e-07
6.28179e-07
-7.82737e-07
1.218e-06
-1.218e-06
-1.21948e-06
1.21948e-06
1.22439e-06
-1.22439e-06
-9.63533e-07
9.63533e-07
-1.18797e-07
9.54016e-07
-8.35219e-07
-7.4204e-07
-5.04878e-07
1.12589e-06
-3.72705e-07
-7.53185e-07
3.79678e-07
-9.69708e-07
-1.10221e-06
1.05769e-06
8.11785e-07
3.40977e-08
-8.45883e-07
-8.33247e-07
-2.07243e-08
8.53972e-07
-3.44182e-07
7.2386e-07
2.33254e-07
8.57275e-07
3.03949e-07
-5.94539e-07
-9.87026e-08
6.93242e-07
1.50385e-06
-8.91338e-07
5.8558e-07
8.98246e-08
-6.75405e-07
1.08059e-06
-7.53748e-07
-3.26841e-07
-8.89737e-07
4.94278e-07
-9.48934e-07
1.21804e-06
-2.69102e-07
5.17414e-07
-1.11195e-06
-7.93925e-07
-5.37774e-07
-4.98477e-07
1.08406e-06
-8.86083e-07
1.97289e-07
-7.56375e-07
-8.14112e-07
1.93467e-08
7.94765e-07
-3.29116e-07
7.92091e-07
3.53327e-07
-3.5445e-07
3.4975e-07
-3.56314e-07
9.73807e-07
-4.27479e-07
8.88485e-07
-1.02249e-06
4.57908e-07
-9.58817e-07
1.17548e-06
-2.93402e-07
-9.72136e-07
6.13924e-07
3.58213e-07
9.37761e-07
-1.26139e-07
-8.11622e-07
-9.21112e-07
1.29799e-07
7.91313e-07
-5.30726e-07
1.23099e-06
-1.4975e-06
9.66778e-07
-2.14309e-07
8.25678e-07
-3.27652e-07
3.60732e-07
-7.91863e-07
-5.5397e-07
-9.18318e-07
-5.38183e-08
1.00418e-06
-3.49154e-08
-9.69268e-07
-1.00794e-06
3.03423e-08
9.77595e-07
-1.18989e-06
2.71576e-07
-7.86344e-07
-6.44896e-07
-1.58785e-07
-7.9015e-07
4.00847e-07
7.49223e-07
1.14599e-06
-5.93226e-07
-5.52767e-07
6.27637e-07
-6.05708e-07
-7.88874e-07
8.0576e-07
-1.68854e-08
2.24784e-07
-8.39433e-07
1.17008e-06
-7.52529e-07
-4.17549e-07
8.21088e-07
1.04579e-06
-1.25734e-06
9.80822e-07
6.49689e-08
7.18553e-07
-3.99287e-07
-3.94113e-08
1.03881e-06
-1.06496e-06
2.61523e-08
-1.15737e-06
3.68496e-07
-2.29581e-07
-1.14485e-06
2.49434e-07
1.04206e-06
-2.30528e-07
-9.89192e-07
2.45497e-07
1.2157e-06
6.86289e-07
1.81068e-08
-7.04396e-07
5.2671e-07
6.66117e-07
-1.19283e-06
-9.10086e-07
-3.94465e-07
8.83543e-07
4.05663e-07
-1.33332e-06
2.30191e-07
2.2608e-08
-8.81068e-07
-8.90934e-07
-1.28788e-08
7.88073e-07
-1.63143e-08
-8.01956e-07
-4.45595e-08
8.17015e-07
3.91286e-08
1.17795e-06
-4.84674e-07
-6.93275e-07
-7.50662e-07
7.16278e-07
7.9564e-07
-8.53e-07
-1.09422e-06
7.03553e-07
1.06144e-06
-6.95447e-07
-9.96598e-07
-1.28305e-06
1.88829e-07
1.24338e-06
-1.81934e-07
1.10126e-06
-7.08166e-07
-1.10927e-06
7.06036e-07
1.27182e-06
-1.70557e-07
-1.29848e-06
1.89204e-07
1.45098e-07
7.92664e-07
-1.36601e-07
-7.84511e-07
6.5968e-07
-1.03315e-06
6.44743e-07
-1.02208e-06
-6.86529e-07
1.04868e-06
-6.72735e-07
1.03831e-06
1.02967e-06
-1.36485e-06
8.71812e-07
4.93038e-07
1.36594e-06
-8.7647e-07
-4.89472e-07
-1.12139e-06
1.31868e-06
-1.36474e-06
8.72304e-07
4.92436e-07
1.37304e-06
-8.79494e-07
-4.93543e-07
-6.71482e-07
-5.761e-07
-1.3471e-06
1.33392e-06
-1.34135e-06
1.33686e-06
7.06386e-07
-1.24792e-06
5.41534e-07
-4.41735e-08
-7.69938e-07
5.51168e-07
5.94652e-07
-1.14582e-06
1.19454e-06
-5.08253e-07
7.58658e-07
1.87408e-07
-1.22275e-06
-8.8168e-07
1.3797e-07
7.43711e-07
1.17334e-06
-3.98058e-07
-7.75281e-07
-4.90233e-07
1.82751e-07
-1.21442e-06
-1.93e-07
1.22542e-06
1.71377e-07
-1.94244e-07
1.00562e-06
1.3899e-06
-3.94818e-07
-8.28057e-07
1.37923e-06
-8.19911e-07
4.90112e-07
8.2116e-07
-4.9105e-07
5.65851e-07
3.63914e-07
-9.29765e-07
-6.49031e-07
-3.02576e-07
9.51607e-07
-6.07671e-09
-8.44439e-07
8.50516e-07
9.26582e-07
-9.76683e-07
-9.63085e-07
-5.93706e-07
-6.73597e-07
6.8733e-07
-9.88195e-07
1.04201e-06
1.00531e-06
-1.05142e-06
8.93533e-07
-1.36313e-06
-7.25743e-07
-6.38672e-08
7.8961e-07
7.03068e-07
5.65006e-08
-7.59569e-07
-1.4743e-06
5.94851e-07
8.79452e-07
1.01855e-06
4.36899e-08
-1.06224e-06
-9.15959e-07
-1.15676e-07
1.03163e-06
-1.07497e-06
9.14053e-07
1.73007e-07
-1.08706e-06
1.09027e-06
7.12598e-07
-5.31983e-07
-1.11714e-06
3.91398e-07
1.09282e-06
-3.89748e-07
-8.94832e-07
1.27444e-06
-3.79605e-07
-1.89724e-08
-8.75859e-07
-1.01024e-06
1.83851e-07
8.26386e-07
1.04275e-06
-1.78588e-07
-8.64159e-07
-6.23973e-07
1.03619e-06
-4.12217e-07
-9.38868e-07
-2.00251e-07
1.13912e-06
-5.26735e-07
-1.60341e-07
9.04052e-07
-9.38363e-07
-1.11152e-07
-6.99638e-07
9.84988e-07
6.12099e-07
-9.82005e-07
3.69906e-07
1.18633e-06
-6.1302e-07
-5.73311e-07
-1.20312e-06
6.43408e-07
5.59709e-07
-5.90836e-07
1.34949e-06
4.82114e-07
5.09848e-07
-4.94825e-07
-4.81528e-07
-1.31472e-07
1.24082e-07
1.63243e-07
-1.18825e-06
1.02501e-06
4.50011e-07
-4.61878e-07
-2.90078e-08
-9.35398e-07
9.76201e-07
1.69792e-07
-8.27545e-07
4.9238e-07
-7.95393e-07
1.00407e-06
-1.01014e-06
-7.57995e-07
7.54254e-07
4.24046e-07
-4.39531e-07
8.46904e-07
3.26435e-07
1.42959e-07
8.75595e-07
1.41581e-07
-8.65384e-07
-7.13444e-07
-4.27859e-07
-7.75242e-07
5.65246e-07
7.96171e-07
3.81778e-07
5.62477e-08
9.7533e-07
-5.91095e-07
-4.95905e-07
6.01401e-07
4.89256e-07
-3.0669e-08
8.04361e-07
-4.66277e-07
9.57099e-07
-4.90822e-07
1.05913e-06
-8.76728e-08
-5.2272e-07
9.23179e-07
-4.00459e-07
-1.18251e-06
1.76974e-07
-1.11584e-06
6.01521e-07
-2.50104e-07
1.06189e-06
2.64185e-07
-1.09743e-06
1.56249e-07
1.54753e-07
-1.66103e-07
-1.65414e-07
-1.62273e-07
8.33366e-07
-5.08239e-07
4.97616e-07
-4.78269e-07
1.12359e-06
-1.66846e-07
-9.56742e-07
-1.15112e-06
1.70016e-07
9.81106e-07
6.04493e-07
6.35031e-07
-3.46018e-08
-8.24076e-07
1.98084e-07
-8.56903e-07
-4.82805e-07
-5.42765e-07
1.73167e-07
-9.26938e-07
-1.77211e-07
9.47167e-07
9.19375e-07
1.42778e-07
2.12642e-07
-1.15296e-06
9.40315e-07
8.593e-07
3.34679e-07
1.72784e-07
7.46592e-07
9.31667e-08
1.35574e-06
-8.12703e-07
-5.43034e-07
6.75004e-07
-1.10366e-06
4.12868e-07
8.99774e-07
1.61599e-09
-9.89692e-07
-2.68261e-07
-8.6232e-08
-6.85846e-08
-8.25678e-07
6.90004e-07
6.9222e-07
-6.94676e-07
8.6746e-07
1.20695e-06
-6.55343e-07
-7.0536e-07
1.33354e-06
1.10241e-06
-9.67726e-07
-1.34686e-07
8.77511e-07
-1.17851e-06
1.25113e-06
-8.1508e-07
1.0972e-07
5.37862e-07
-7.00135e-07
-8.67834e-07
1.33173e-06
-6.64841e-07
-2.8638e-07
6.86381e-07
1.11432e-06
-1.42288e-07
-7.99264e-07
1.49876e-08
-4.80606e-07
6.78691e-07
7.7736e-07
2.53968e-07
9.76513e-08
8.18049e-07
-8.18048e-07
7.51852e-09
-1.14629e-06
3.15216e-07
-1.27579e-06
2.03167e-07
1.19769e-06
-2.3581e-07
-5.61247e-07
1.17517e-06
3.18286e-08
8.20916e-07
-8.52745e-07
-1.36936e-06
6.35472e-07
7.3389e-07
1.29782e-06
-2.04528e-07
-1.18085e-06
2.27146e-07
-1.04616e-06
1.61558e-07
8.84606e-07
9.70833e-07
1.92706e-07
8.72775e-07
-8.68071e-07
-8.64631e-07
8.74701e-07
4.9371e-07
-5.24379e-07
4.16282e-07
6.70489e-07
-1.05166e-06
1.11393e-06
1.05033e-06
-1.10949e-06
5.62127e-07
7.56549e-07
-9.29473e-07
4.95148e-07
-1.32088e-06
9.0555e-07
4.15326e-07
2.87741e-07
-9.11714e-07
1.32085e-06
-5.66716e-07
-7.54132e-07
-1.37932e-06
5.52685e-07
8.26637e-07
-1.47875e-07
-9.0378e-07
1.66175e-07
8.84155e-07
8.50652e-07
3.5634e-07
6.13785e-08
-8.00551e-07
-1.9691e-07
7.86099e-07
1.93929e-07
7.92438e-07
1.9517e-07
-7.92798e-07
-1.948e-07
-8.15529e-07
-3.22251e-07
4.15458e-07
-9.41309e-07
-2.5191e-07
1.19322e-06
9.80025e-07
2.29785e-07
-1.20981e-06
-1.24054e-06
1.09108e-06
-1.07938e-06
1.63521e-07
-9.91579e-07
-3.06916e-07
9.19014e-07
2.9885e-07
-2.98914e-07
-4.30548e-07
-3.56751e-07
7.87299e-07
-8.93954e-07
4.63406e-07
3.02177e-07
-3.5861e-07
-1.21664e-06
3.78651e-07
1.48911e-08
1.08752e-06
1.11682e-06
-7.01365e-07
6.00491e-07
5.16269e-07
-8.38957e-07
-7.17354e-07
7.49182e-07
7.81339e-07
4.25607e-07
2.48701e-07
-8.39537e-07
1.11856e-06
-1.11856e-06
-8.56831e-07
8.61251e-07
-8.55328e-07
8.56335e-07
-1.27089e-06
8.31688e-07
4.39204e-07
-7.48593e-07
-2.567e-07
-1.23512e-06
1.23512e-06
-6.59017e-07
-4.03194e-07
1.06221e-06
9.0164e-07
-6.52939e-07
8.53182e-07
-8.35075e-07
-5.72296e-08
-7.87408e-07
8.44637e-07
-7.7089e-07
-5.00285e-07
-5.4012e-07
-1.14919e-06
8.0501e-07
-1.01768e-06
-1.31511e-07
-1.06046e-06
5.52224e-07
-5.12352e-07
1.15811e-06
-3.77583e-07
-1.06984e-06
3.86951e-07
7.63346e-07
4.49864e-07
-1.12565e-06
-1.32386e-06
9.14144e-07
4.0972e-07
1.31213e-06
-9.13902e-07
-3.98229e-07
2.04306e-08
8.81209e-07
-9.06659e-07
7.87862e-07
-7.2662e-07
-5.44272e-07
-7.96484e-07
-5.33989e-07
-6.69607e-07
-4.93583e-07
-4.5082e-07
-7.0655e-07
-1.05224e-06
1.05224e-06
1.05026e-06
-1.05026e-06
1.05642e-06
-1.05642e-06
-1.05163e-06
1.05163e-06
-1.06593e-06
5.36711e-07
5.29222e-07
8.09801e-07
-8.23215e-07
-8.23857e-07
8.30865e-07
-8.38215e-07
1.17562e-06
-3.37406e-07
2.38755e-08
-5.2061e-07
6.64601e-07
-1.37879e-07
-8.0343e-07
1.75265e-07
8.0476e-07
-8.73201e-07
-1.79036e-07
8.65709e-07
1.84555e-07
3.43201e-07
1.09576e-07
5.56555e-07
-6.82565e-07
-6.00048e-07
7.37049e-07
-1.28284e-07
-9.62619e-07
2.62751e-07
8.76357e-08
2.38043e-08
-8.64063e-07
-1.87568e-07
8.69674e-07
1.86747e-07
4.70585e-07
-1.06604e-06
1.3088e-06
-3.47379e-07
-1.16818e-06
3.04495e-07
5.61202e-07
-8.65697e-07
9.27194e-07
1.96394e-07
-9.48364e-07
-2.02758e-07
2.41763e-07
9.36204e-07
-1.17797e-06
1.0231e-06
-2.27669e-07
1.18442e-06
-9.56749e-07
-2.53006e-07
9.39387e-07
-7.77334e-07
-1.129e-06
-7.8969e-07
9.86342e-07
-6.72926e-07
7.33792e-07
-4.02466e-07
4.33704e-07
8.77822e-07
-6.73436e-07
-7.31313e-07
1.20735e-06
1.23334e-06
-1.04517e-06
4.88786e-09
-1.05754e-06
-1.14929e-06
4.61465e-07
6.87828e-07
7.33186e-07
-3.27277e-07
6.75935e-07
2.68775e-07
1.13232e-06
-3.3109e-07
6.84572e-07
6.36276e-07
-1.68971e-07
-3.65339e-07
1.08389e-06
-6.9896e-07
-6.80363e-07
7.87144e-07
7.66363e-07
6.26693e-07
-9.67626e-07
3.40934e-07
3.18538e-07
8.59896e-07
-5.41358e-07
-3.7352e-07
-8.64764e-07
4.91243e-07
1.00931e-06
-8.38613e-07
7.70028e-07
-1.20366e-06
3.6505e-07
8.19137e-07
9.73819e-07
-1.0345e-06
7.96666e-07
-8.52918e-07
-2.08938e-07
1.00101e-06
9.53064e-07
-1.01425e-06
6.11882e-08
1.14724e-06
-4.06671e-07
-7.40568e-07
7.12707e-07
-7.52815e-07
9.02786e-07
3.88659e-07
7.84092e-07
-5.82255e-08
7.45029e-07
-6.86803e-07
8.0974e-08
1.14672e-06
-7.31507e-07
-4.15212e-07
-1.12392e-06
7.32328e-07
3.91594e-07
3.17956e-07
6.91353e-07
4.88219e-08
-8.87037e-07
-1.00069e-06
1.12549e-07
1.0606e-07
-1.15123e-06
-7.67759e-07
-4.80062e-07
1.03707e-06
7.8751e-07
4.62503e-07
-5.96061e-07
8.56601e-07
5.23247e-07
6.51742e-07
-7.51182e-07
5.88588e-07
-8.79251e-07
7.1607e-07
-7.35276e-07
6.14434e-07
5.76527e-07
-9.78843e-07
-8.20036e-08
-2.09177e-07
9.78712e-07
-7.69535e-07
-7.80658e-07
-6.41748e-07
9.34067e-07
4.45158e-07
-3.79405e-07
-4.95037e-07
8.74442e-07
-9.12662e-07
-5.84842e-07
-2.48483e-07
8.52975e-07
-8.04332e-07
-3.41956e-07
-5.6212e-07
1.05336e-06
-4.91242e-07
-7.26589e-07
6.68364e-07
-4.11354e-07
-7.66613e-07
8.47092e-08
-7.5333e-07
6.68621e-07
-3.82022e-07
9.57377e-07
-1.56708e-07
7.83401e-07
4.54116e-07
4.2572e-07
-8.79836e-07
-5.79607e-07
1.04426e-06
-4.64653e-07
-8.17401e-07
-7.4925e-07
-9.85341e-08
1.34964e-06
-4.56111e-07
-9.54371e-07
-9.17937e-08
4.45046e-07
-1.03852e-06
5.93479e-07
-6.88984e-07
-5.38045e-07
5.43678e-07
-6.40909e-07
-6.43702e-07
6.45652e-07
6.47382e-07
6.39368e-07
6.48804e-07
-6.40498e-07
-6.45273e-07
3.56505e-07
-1.00526e-06
-7.20765e-07
8.49065e-07
7.68087e-07
-1.68605e-08
-9.46673e-07
7.64776e-07
-7.64331e-07
-2.1204e-07
-8.01418e-07
-6.98036e-08
7.82511e-07
7.39024e-07
3.95981e-07
-7.19013e-07
-3.87026e-07
7.46898e-07
4.4272e-07
5.94166e-07
7.55478e-07
-8.25925e-07
-3.77737e-07
-1.00747e-06
1.23726e-06
1.01124e-06
-1.26315e-06
8.43504e-07
1.18311e-07
-8.57192e-07
-1.11566e-07
1.22985e-06
-8.76441e-07
-3.53413e-07
8.88674e-07
-9.0391e-07
7.771e-07
1.9607e-07
-7.45522e-07
-2.26917e-07
1.46743e-07
-1.25964e-07
-7.44033e-07
8.69996e-07
1.63152e-07
-1.23619e-06
4.6911e-08
8.34298e-07
7.32165e-07
2.54314e-07
4.46624e-07
-1.01596e-06
5.69339e-07
-9.91683e-07
9.73977e-07
8.59254e-08
-6.69748e-07
1.28085e-07
7.77466e-07
1.0564e-06
1.04877e-06
-6.7201e-07
-3.76764e-07
-6.64541e-07
5.72845e-07
-7.16327e-07
1.25655e-06
-4.52191e-07
-3.38053e-07
9.72274e-07
-6.34221e-07
-5.97949e-07
5.28145e-07
-9.83431e-07
1.91569e-07
4.5873e-07
4.18703e-07
1.48301e-07
4.77096e-07
4.05992e-07
-3.59286e-07
-3.40535e-07
-3.40952e-07
-1.06598e-06
4.74883e-07
1.09097e-06
-4.89569e-07
-1.00689e-06
4.80857e-07
-1.84167e-07
-3.47938e-07
-1.03396e-06
1.40006e-07
-3.32672e-07
1.06434e-06
-4.35042e-07
-4.10426e-07
8.45468e-07
5.46706e-07
-9.81748e-07
4.94115e-07
-1.24744e-06
8.25341e-07
4.46476e-07
-8.36739e-07
-4.61738e-07
-8.39784e-07
-4.43262e-07
6.19895e-07
6.23481e-07
1.1267e-06
-5.29222e-07
-5.97477e-07
-8.15815e-07
7.98929e-07
7.79827e-07
3.49573e-07
-9.42799e-07
5.42446e-07
-9.21852e-07
4.27486e-07
7.60449e-07
-4.1184e-07
-7.33957e-07
-3.18774e-07
-6.89645e-07
4.31939e-07
6.75695e-07
7.37494e-07
-4.32999e-07
6.76887e-07
-1.13005e-06
4.53161e-07
-5.05049e-07
9.59164e-07
1.14714e-06
-3.03632e-07
-1.14199e-06
2.848e-07
-9.30168e-08
-6.93081e-07
1.27833e-07
7.18881e-07
1.27223e-07
7.16038e-07
-9.20843e-08
-6.94329e-07
-1.15419e-06
3.2851e-07
-1.02068e-06
8.26439e-07
-1.01086e-06
-9.82228e-09
-6.01101e-07
1.19042e-06
-5.89315e-07
-8.2877e-07
1.00867e-06
8.24161e-08
-9.95225e-07
-8.41547e-08
-9.18453e-07
1.13109e-06
3.79961e-07
7.24938e-07
5.68828e-07
-4.04453e-07
-6.82547e-07
-5.17803e-07
-1.82884e-07
-8.05644e-07
-6.79668e-07
-3.86265e-07
7.1246e-07
3.80356e-07
-7.25176e-07
-3.91965e-07
-9.74573e-07
6.78547e-07
1.08614e-06
-5.85852e-07
8.94263e-07
1.41927e-07
9.70834e-07
-6.79074e-07
-1.09058e-06
5.91578e-07
-1.07288e-06
-5.83011e-07
6.39512e-07
5.92521e-07
-6.56389e-07
1.22888e-07
6.48913e-07
-7.71802e-07
-9.02287e-07
2.46944e-07
9.50268e-07
1.14076e-07
4.02017e-07
5.84025e-07
-9.86042e-07
-3.11046e-07
5.07593e-07
3.07665e-07
-5.08616e-07
5.68686e-07
-4.21943e-07
-9.7094e-07