/*--------------------------------*- C++ -*----------------------------------*\
  =========                 |
  \\      /  F ield         | OpenFOAM: The Open Source CFD Toolbox
   \\    /   O peration     | Website:  https://openfoam.org
    \\  /    A nd           | Version:  7
     \\/     M anipulation  |
\*---------------------------------------------------------------------------*/
FoamFile
{
    version     2.0;
    format      ascii;
    class       volVectorField;
    location    "0.05";
    object      U;
}
// * * * * * * * * * * * * * * * * * * * * * * * * * * * * * * * * * * * * * //

dimensions      [0 1 -1 0 0 0 0];

internalField   nonuniform List<vector> 
2700
(
(1.00521 -0.0111897 1.03195e-18)
(1.01139 0.0140742 1.35905e-17)
(1.03493 0.0236604 -1.19276e-18)
(1.00047 -0.00801484 -6.69519e-18)
(0.986359 -0.000818435 8.40846e-18)
(1.03293 0.0205584 1.63661e-17)
(0.989992 0.0299345 8.29883e-18)
(1.01793 0.0246052 -2.98725e-18)
(1.03001 -0.00861645 -9.94191e-18)
(0.955413 0.0133317 1.27178e-18)
(1.02531 -0.0100064 5.36122e-18)
(0.970928 -0.0211449 2.72855e-18)
(0.961836 0.0508514 -4.36777e-18)
(0.997133 0.0162101 0)
(1.00175 0.026478 -9.48793e-18)
(0.998738 -0.0208259 1.05122e-18)
(1.0041 0.0137458 -1.96376e-18)
(1.02421 -0.0259083 5.8022e-18)
(1.01322 -0.0211971 1.93364e-17)
(1.02757 -0.0344125 8.75514e-19)
(0.987921 0.00765387 1.05167e-17)
(0.990681 0.0280516 -4.22191e-18)
(1.01723 -0.0464353 -1.44517e-18)
(1.0157 -0.0422178 0)
(1.00578 -0.000486025 0)
(0.964419 0.00623177 -8.33478e-19)
(1.01228 -0.010488 6.08113e-19)
(1.02441 0.0118969 0)
(1.01175 0.00496573 0)
(1.03111 0.0195143 0)
(1.02133 -0.00480817 -1.07055e-17)
(1.01949 0.00878235 3.32402e-18)
(0.980125 0.0050804 6.69134e-18)
(0.985938 -0.0117035 6.9986e-19)
(0.99564 -0.00400584 -6.44767e-18)
(1.00814 0.0353018 0)
(1.02064 -0.0461565 0)
(1.02485 0.010233 -2.71591e-18)
(1.00774 -0.0169106 0)
(1.0008 -0.0311198 -5.45303e-18)
(1.05289 0.0336038 -7.01025e-19)
(1.05294 0.0139393 0)
(1.00641 -0.00638708 -5.57579e-18)
(0.984902 -0.0052533 1.82384e-17)
(1.04972 0.00748036 -4.71334e-19)
(1.00351 0.0401093 0)
(1.01881 -0.0382015 0)
(1.09296 -0.0268824 2.30615e-18)
(1.04969 0.0208511 -1.6144e-18)
(1.08676 0.0164209 -3.48505e-18)
(0.993793 -0.0121298 5.51079e-18)
(0.983517 -0.0174614 -5.07786e-18)
(1.03534 0.018512 0)
(0.98165 -0.00733515 -1.43301e-18)
(0.991653 0.00496283 -1.24639e-17)
(1.01458 0.0102907 -4.37278e-18)
(0.991064 -0.00679879 3.68335e-17)
(0.98065 0.00574052 -1.92277e-18)
(0.980229 0.0105818 5.77079e-19)
(0.993879 0.000300243 0)
(1.07676 -0.0217057 2.23288e-18)
(1.03864 -0.0182742 -8.11767e-18)
(0.993161 -0.00245464 -1.2514e-17)
(0.978962 -0.0141099 1.51593e-18)
(1.04755 -0.00721906 0)
(1.05821 0.020016 0)
(1.04505 0.0206296 -5.66219e-18)
(1.0557 -0.0181715 -2.77182e-18)
(1.09135 0.0242031 -8.39628e-18)
(1.06199 0.0334752 -1.87177e-18)
(0.975694 0.00612542 -5.36895e-18)
(0.999358 0.0377149 0)
(1.02326 0.0213056 0)
(1.00929 -0.00474643 5.81969e-18)
(1.01968 -0.0221767 4.08168e-18)
(1.01125 0.00432881 -2.8872e-18)
(1.02672 -0.0222775 1.15569e-18)
(1.02085 0.0208361 7.9739e-19)
(1.0107 -0.00788934 1.56563e-17)
(1.0411 0.0113673 1.05423e-18)
(0.985929 0.0213537 0)
(1.03653 0.020604 0)
(1.07019 0.0019914 -1.20253e-17)
(1.03984 -0.00867391 -1.20134e-17)
(1.06437 0.0146576 1.28624e-17)
(1.07196 -0.00442015 2.57682e-17)
(1.01529 0.00869798 1.71547e-17)
(1.01785 -0.013636 0)
(1.04081 0.0112183 -1.69061e-17)
(1.03826 0.00671868 0)
(0.97571 0.0146793 0)
(0.976381 -0.0279263 3.87862e-18)
(0.988849 0.000952216 -4.74503e-18)
(1.03161 -0.0244853 3.25733e-18)
(1.05922 0.0219072 2.7287e-18)
(1.02447 -0.0212207 5.05866e-18)
(1.03241 0.0138733 -5.55547e-18)
(1.07633 0.0487997 -1.83e-18)
(1.02623 0.00690864 -2.36126e-17)
(1.01115 0.00918757 -6.63098e-18)
(1.07683 -0.0368317 0)
(1.02864 0.0863708 -1.07514e-18)
(1.0679 0.00749346 7.29947e-18)
(1.06398 -0.00714783 -6.96774e-18)
(1.00621 0.0068684 0)
(0.932117 0.0382918 8.82528e-20)
(0.985876 -0.00730376 1.47001e-18)
(1.05535 0.00867944 0)
(1.02304 -0.0502329 -1.38987e-17)
(1.00018 0.00579097 1.21562e-17)
(0.935438 -0.0436383 1.36948e-19)
(0.98009 0.00465678 0)
(1.02753 -0.02595 0)
(1.01068 0.035927 8.92531e-18)
(1.01775 0.0200097 -1.25759e-17)
(1.06985 0.0503851 0)
(1.03313 0.0441089 2.04283e-18)
(1.03078 0.00143405 -9.23906e-18)
(1.01408 0.0154999 6.33425e-18)
(1.03755 0.0118194 0)
(1.05157 0.0186319 1.13908e-17)
(1.05816 -0.0196755 -6.10707e-18)
(1.01866 -0.011982 -5.07963e-18)
(1.04407 0.0185864 0)
(0.971897 -0.0188993 -2.57606e-18)
(0.988972 -0.013768 6.66777e-18)
(1.12 -0.00939541 -2.49495e-18)
(1.05998 0.000529263 6.18465e-18)
(1.0988 -0.00546215 1.65778e-18)
(0.947689 -0.0798574 1.30278e-18)
(0.989015 0.0167978 1.20637e-17)
(0.989321 -0.0182897 1.2102e-17)
(0.950695 0.0750535 5.1501e-19)
(0.990777 -0.0430672 -1.37594e-19)
(1.00248 -0.0270241 8.51027e-19)
(0.98694 -0.010149 0)
(0.986318 0.0223185 1.55682e-19)
(1.01573 -0.0185728 -1.23158e-17)
(1.05837 -0.0205389 6.50166e-19)
(1.03026 0.0206145 -6.18375e-18)
(1.07849 0.049248 0)
(1.01752 -0.00921984 6.18564e-18)
(1.06807 -0.0352009 0)
(1.04165 -0.0315087 0)
(1.01376 0.0143834 6.32799e-18)
(0.982621 -0.0203843 -1.20683e-17)
(0.965384 -0.0325357 -2.6151e-18)
(0.965264 0.0098192 0)
(0.954706 -0.0313333 6.20815e-19)
(0.975993 -0.019851 -6.98369e-18)
(0.97644 -0.0145765 -1.26376e-17)
(0.962721 -0.0295084 2.21834e-18)
(1.05078 0.0795684 -1.23279e-18)
(1.05308 0.0404741 1.03149e-18)
(0.947211 -0.0236455 -5.73102e-19)
(0.985781 0.00992679 -6.2429e-18)
(1.02462 -0.00610999 -5.18774e-18)
(0.982907 -0.0144536 6.20994e-18)
(0.947608 0.017277 0)
(0.990992 -0.0213239 2.92607e-18)
(1.0224 0.0203133 -9.4899e-19)
(1.0166 0.0136948 0)
(1.00987 0.0319632 -1.36352e-18)
(0.986068 0.0417915 0)
(0.999401 0.00875818 0)
(0.981594 0.00033924 1.42412e-17)
(1.02602 0.0217565 -1.50739e-17)
(1.06187 -0.0122198 0)
(1.08131 -0.0240293 1.03764e-17)
(0.953642 -0.00564273 -2.75594e-18)
(0.99626 0.065541 0)
(0.988748 0.00845311 1.24136e-17)
(0.986379 0.0223756 -5.91792e-18)
(0.999845 0.0202754 0)
(0.999062 -0.0224021 0)
(1.01444 -0.0475828 0)
(1.01694 -0.0113623 6.46616e-18)
(1.03451 -0.0215 -1.17742e-18)
(1.06338 0.00638624 0)
(0.983891 -0.00666224 0)
(0.994363 -0.0331729 -1.00425e-17)
(1.01599 -0.0161691 0)
(0.979835 0.0125064 1.55421e-18)
(1.00383 -0.0117496 -1.24173e-17)
(0.990583 -0.0364896 1.34833e-18)
(1.01302 -0.0148544 -1.86443e-18)
(1.04421 0.0237029 5.29056e-18)
(1.04268 -0.0407168 9.3106e-19)
(0.98758 -0.0162303 3.17437e-18)
(1.06027 0.025724 -1.22085e-17)
(1.00414 -0.0146347 -4.98747e-20)
(1.03 0.0133299 6.76786e-18)
(1.06534 0.0306887 0)
(0.994394 -0.00219622 -8.28683e-18)
(1.01591 -0.0270888 5.05831e-18)
(1.0005 0.0328543 -3.9427e-18)
(0.956354 0.0368277 -6.88816e-18)
(0.993738 -0.00534012 -7.466e-18)
(0.970872 0.00589087 -4.90928e-18)
(0.955173 0.0242995 4.02779e-18)
(1.01027 -0.0193024 -1.36596e-18)
(1.00437 -0.0115816 -7.15164e-20)
(1.00574 -0.000547285 1.56908e-17)
(1.01091 0.00437636 8.94372e-19)
(1.04521 0.00149358 4.76579e-18)
(0.971481 0.0115428 0)
(1.03947 0.0203528 -4.90102e-18)
(1.07422 0.00778227 -1.23662e-17)
(1.03898 -0.0272409 8.20829e-19)
(1.06149 -0.0476726 -8.67804e-19)
(1.00654 0.0270134 -2.49141e-18)
(0.998677 0.0451056 1.75069e-19)
(0.98789 -0.00745046 2.99042e-18)
(0.982541 -0.00475118 -5.80715e-19)
(1.01029 -0.0180436 0)
(0.996158 0.0207357 6.31312e-18)
(1.02725 -0.0323848 4.8455e-19)
(0.974639 -0.0187772 0)
(0.998713 0.010927 7.99674e-21)
(0.987773 -0.00921774 0)
(0.988558 0.0284677 0)
(0.988555 0.0215521 0)
(0.960666 0.0306045 0)
(1.03159 -0.0305261 -5.32451e-18)
(1.01399 0.0270702 0)
(1.00716 0.0131753 0)
(1.08334 0.0707863 -1.17166e-18)
(1.0604 0.0240137 0)
(1.02379 -0.00685438 5.36586e-18)
(1.06397 -0.016671 2.74192e-18)
(1.03327 -0.00521169 0)
(1.03378 -0.0113996 0)
(1.09596 -0.00953753 8.01782e-18)
(1.01452 0.0367209 -2.3742e-18)
(0.99438 0.0128571 2.96338e-19)
(0.996867 -0.00431258 1.1534e-17)
(0.996047 0.00289322 -2.14146e-17)
(0.992676 -0.0140445 9.88527e-19)
(1.03464 0.0273275 2.20285e-18)
(1.00756 -0.00814454 1.39249e-17)
(1.01559 -0.00149613 8.7148e-18)
(1.04652 -0.0303318 2.31593e-18)
(1.0021 0.00510025 0)
(0.996434 -0.0260905 8.4301e-18)
(1.03244 0.00346762 2.78312e-18)
(0.996886 0.0170756 -9.75688e-18)
(1.05491 -0.0287988 -1.55226e-18)
(1.06394 0.0297323 -1.41461e-18)
(0.985099 0.00937936 -2.47797e-17)
(0.985277 -0.00528703 -1.24179e-17)
(0.991216 -0.00817536 0)
(0.941674 0.0175346 -1.78444e-19)
(1.01858 -0.0161725 1.12165e-17)
(1.01661 -0.032399 3.37825e-18)
(1.03457 0.00627182 0)
(1.03022 0.0248572 -6.03146e-18)
(1.00151 0.0091807 -5.96447e-18)
(0.977816 -0.0264795 0)
(1.06956 0.0237802 5.93555e-18)
(1.01837 -0.0205398 0)
(1.02809 -0.0179227 5.4427e-18)
(1.04762 -0.0106449 0)
(1.01248 0.0411228 -8.01603e-20)
(1.00856 0.0347808 2.25886e-18)
(1.05465 -0.0321698 -4.36085e-18)
(0.994085 0.0238254 1.69983e-18)
(0.983505 -0.051458 1.28201e-18)
(0.976349 -0.0135676 0)
(1.06785 -0.0134882 7.52319e-19)
(0.980994 0.0481129 -8.5001e-20)
(0.992472 -0.0276064 1.00949e-17)
(1.02702 -0.0194602 1.14636e-17)
(1.07231 -0.00210398 0)
(1.06336 -0.0151247 8.13687e-18)
(0.989473 0.0307277 -2.1177e-18)
(0.998916 -0.0136246 -1.09819e-17)
(0.969675 0.00434601 0)
(1.06753 -0.0135697 -1.98556e-17)
(0.997585 0.0114595 -1.46687e-17)
(0.994294 -0.0326211 0)
(0.989749 -0.006687 -1.72561e-18)
(0.992983 -0.00812229 3.15373e-18)
(1.00954 -0.00288307 -1.31426e-17)
(1.00737 -0.00846045 0)
(1.0607 -0.0379639 -3.52989e-18)
(1.04365 0.0299861 2.37516e-18)
(0.9852 0.0134373 -2.08756e-19)
(0.945934 -0.0136126 -5.97524e-18)
(1.02279 -0.0373449 0)
(1.00389 0.00301487 2.97045e-18)
(1.0047 0.025273 2.97194e-18)
(1.00001 0.000131953 -4.70216e-18)
(0.981279 0.00528692 1.47801e-17)
(1.00638 0.00448668 9.29852e-18)
(1.03934 0.0362119 -3.13749e-18)
(1.0048 -0.00386559 -1.10398e-17)
(1.04851 -0.0226682 0)
(1.03223 0.0147832 -6.96999e-18)
(1.01047 0.0120292 7.05039e-18)
(1.02872 -0.0124967 1.46091e-17)
(1.0408 0.0116307 0)
(1.0048 0.0312817 -3.27469e-18)
(1.00281 -0.0140864 -6.64615e-18)
(1.01573 -0.0203303 0)
(1.01963 -0.00620699 -5.75187e-18)
(1.00624 -0.0500002 5.56819e-18)
(0.993266 0.0409462 4.69363e-18)
(1.01863 0.0579168 -4.1735e-18)
(1.05805 -0.0107561 0)
(0.975983 0.00389283 -2.53945e-18)
(0.991455 -0.00448178 0)
(0.987414 0.00226839 -1.22045e-17)
(0.978254 -0.00586673 2.89384e-19)
(1.03666 -0.0101689 0)
(0.997825 0.0112676 7.13726e-18)
(1.09312 0.0182808 0)
(1.02579 -0.00733674 6.62148e-18)
(1.00732 0.0214222 -3.36884e-18)
(1.01638 0.0227498 -1.63776e-17)
(1.00089 0.021856 0)
(1.04741 0.00740553 8.83321e-19)
(1.02074 8.73626e-05 -8.60686e-18)
(1.03541 0.0330035 5.15904e-18)
(1.05339 0.0108004 2.46374e-17)
(1.01335 -0.0171319 0)
(1.021 0.0100238 7.09201e-20)
(0.972069 -0.0328678 4.87023e-18)
(0.975896 -0.0338131 -9.83179e-18)
(1.02778 -0.00081903 5.1365e-18)
(0.932269 -0.00647345 1.24849e-19)
(1.02793 -0.00758442 -1.56696e-18)
(1.02252 -0.00579569 1.16207e-18)
(1.06668 0.0163484 1.22608e-18)
(1.0163 -0.0108748 -4.4467e-18)
(1.02479 0.0158867 -5.65837e-18)
(1.01473 -0.0297546 3.76606e-18)
(0.943555 0.0219597 0)
(1.02741 -0.00981616 0)
(1.05126 -0.0576101 0)
(1.03047 -0.0306949 7.30456e-18)
(1.03277 0.0290512 0)
(1.01888 0.00976051 -2.09825e-17)
(0.975766 0.0100947 0)
(0.987105 0.0018707 -6.54919e-18)
(0.938641 -0.0257378 0)
(0.951373 0.0224199 -1.72615e-17)
(0.975591 -0.0162033 8.41458e-19)
(1.0239 0.0245687 0)
(0.99239 -0.00906826 0)
(0.980471 -0.0436904 -4.29669e-19)
(1.03608 -0.0279869 0)
(0.981102 -0.00144348 0)
(1.04456 -0.0180809 1.08363e-17)
(0.974963 0.013366 1.14995e-17)
(0.946496 -0.0153069 0)
(1.02543 -0.00851361 3.21551e-18)
(0.994829 0.000631457 7.40845e-18)
(1.06111 -0.0526746 3.41421e-19)
(0.936556 -0.0247315 3.29708e-18)
(1.05175 -0.00986953 2.99163e-18)
(1.00239 0.00271349 1.28463e-17)
(1.00015 -0.0110564 -3.27656e-18)
(0.990114 0.00145253 6.84137e-19)
(1.00175 -0.0236804 9.07915e-19)
(0.968174 0.00213952 3.00246e-18)
(1.05426 -0.0263258 -9.60965e-20)
(1.02439 -0.00523583 -2.27759e-20)
(1.00891 -0.00801556 -5.86886e-18)
(1.08022 -0.00777852 0)
(1.03915 0.0128827 0)
(1.03875 -0.0869845 0)
(0.988478 0.0115129 5.94334e-18)
(0.99778 -0.00618306 -5.99497e-18)
(0.991196 -0.0121096 -2.60375e-19)
(0.981703 0.0285767 -1.44588e-18)
(0.986857 0.00502629 0)
(1.04205 0.0434372 8.14245e-19)
(1.07119 -0.0364253 6.34844e-18)
(1.04389 -0.024996 -1.36336e-17)
(1.08674 -0.0338389 0)
(0.981987 -0.00905654 3.10601e-18)
(0.991952 0.0131098 -1.26898e-17)
(0.99052 -0.0033233 1.30612e-17)
(0.99109 0.0132093 2.17364e-18)
(1.00566 -0.00719204 -1.71831e-18)
(1.0056 0.000459483 -1.98365e-17)
(1.03898 0.0162221 -6.36095e-18)
(1.0062 -0.00171412 0)
(1.00311 0.005488 -6.63168e-19)
(0.997325 0.0220855 0)
(0.954258 0.0220763 -6.74713e-18)
(1.01456 -0.0150858 2.64395e-17)
(1.02369 -0.0239949 -1.68723e-18)
(1.00461 0.0215832 -3.5241e-19)
(0.926777 -0.00572743 3.91074e-18)
(1.00817 -0.0586259 -1.26456e-17)
(1.01016 -0.0545864 -1.64963e-17)
(0.950607 -0.0060802 1.48936e-17)
(1.03052 -0.0211167 0)
(0.964479 -0.0314405 -7.16032e-18)
(1.00957 0.029496 0)
(0.976622 -0.0101581 -3.8093e-19)
(0.996013 0.0163605 0)
(0.981794 0.0394273 -4.69278e-19)
(0.987805 -0.00552817 6.01858e-18)
(0.998082 0.00730698 2.31854e-20)
(1.02608 -0.00697348 7.18983e-19)
(0.997875 0.0178545 0)
(0.999649 0.0389374 0)
(1.00509 -0.00598965 -6.6191e-18)
(1.03683 0.014039 1.39213e-17)
(1.00062 -0.0193821 3.66747e-18)
(1.00148 0.0330702 0)
(0.996542 0.0230901 -1.86489e-17)
(1.00711 -0.0326553 -2.46e-18)
(1.00076 0.0181637 -2.59156e-18)
(0.971478 -0.0269117 0)
(1.03032 0.0834666 1.49227e-17)
(1.02853 0.0851563 1.9464e-17)
(1.0566 -0.0163241 0)
(1.0526 0.0150508 -2.51215e-18)
(1.03983 -0.0118143 1.21664e-17)
(1.01306 -0.00109172 9.5868e-18)
(1.02649 -0.0184951 4.30274e-18)
(0.936417 0.0182437 -3.25535e-18)
(1.02541 0.00383959 0)
(0.977821 0.0104969 -1.8922e-18)
(0.995051 0.00308161 -1.21046e-17)
(0.988222 -0.00405138 -1.17855e-17)
(0.984487 -0.00621144 1.33004e-19)
(1.01541 -0.0197789 -1.03544e-17)
(1.02593 0.0114174 -5.88514e-18)
(0.966781 0.00965827 1.8361e-17)
(1.03098 -0.000539559 -2.16524e-17)
(1.01201 0.00814905 0)
(1.03342 -0.0271761 6.03092e-18)
(0.968337 -0.016973 0)
(1.02503 -0.0253935 0)
(0.977726 -0.0343639 1.13361e-18)
(0.988159 -0.0191988 0)
(0.984345 -0.00520412 -1.31557e-17)
(0.938076 -0.00496603 0)
(0.98401 0.00305002 0)
(0.94151 0.00213197 -1.07516e-18)
(1.0216 0.00481613 2.52305e-18)
(1.0724 -0.0334202 0)
(1.00438 0.0099132 -3.87698e-18)
(1.02578 -0.00889751 -8.5435e-19)
(1.018 -0.00664832 6.59613e-18)
(0.998748 0.0126646 2.43129e-17)
(0.992977 0.0116889 0)
(0.961282 -0.00616884 -7.71725e-18)
(1.02258 0.0110459 0)
(0.98902 0.0164638 -3.03814e-18)
(0.994427 -0.0156888 0)
(1.05007 0.00243233 1.35621e-18)
(1.01642 -0.000985089 0)
(1.02902 -0.00404729 0)
(1.02374 -0.00139703 -1.90254e-17)
(0.972038 0.0224696 7.71595e-18)
(1.09367 -0.0739489 1.49544e-18)
(0.973533 0.00472886 -4.88796e-18)
(1.03867 0.0214019 0)
(1.04479 -0.0109214 -6.09324e-18)
(0.931207 0.00707724 -5.36432e-18)
(0.996222 -0.00775978 1.26862e-19)
(0.99243 0.011812 0)
(1.02803 -0.00469082 0)
(1.03499 -0.0052884 -5.81067e-19)
(1.02032 0.00841354 -6.03753e-18)
(0.998562 -0.00853696 -5.19935e-18)
(1.01449 0.051703 8.64388e-19)
(0.990882 0.0155869 1.35131e-18)
(0.99934 0.00667402 -1.38751e-17)
(0.994609 -0.0185424 0)
(1.02568 -0.0348373 0)
(1.0041 -0.00777623 -5.5393e-18)
(0.978845 -1.06951e-05 -1.79651e-18)
(1.00708 -0.0138038 -5.96592e-18)
(0.998627 -0.0120195 -1.48967e-17)
(0.997136 -0.00636351 0)
(1.03383 0.02536 0)
(1.03776 0.0223085 -8.90514e-18)
(0.989397 0.016769 0)
(0.992662 -0.0134478 0)
(1.00104 0.0364742 5.79832e-18)
(0.974451 -0.00934824 5.91021e-18)
(1.01971 0.00635784 1.31745e-17)
(1.01862 0.00649407 0)
(0.978849 -0.0107735 -2.27248e-17)
(0.997052 0.0159472 2.98242e-17)
(1.04982 0.0299819 4.97877e-18)
(0.950565 -0.000780548 7.53711e-18)
(0.971328 -0.0194695 -6.29476e-18)
(1.00611 -0.0122328 6.60992e-18)
(1.01412 -0.0104072 1.16863e-18)
(0.990853 -0.0177461 3.81588e-19)
(1.01303 -0.0567779 1.69519e-19)
(1.06261 0.00250571 0)
(1.0255 0.0137787 4.29719e-18)
(0.978895 0.00908441 1.89235e-18)
(0.997304 -0.000198498 6.85978e-18)
(0.989777 -0.0135841 0)
(0.993529 -0.00282729 -1.83078e-17)
(0.992352 0.00579381 0)
(0.985598 0.000506755 0)
(0.984238 -0.00823707 -9.73307e-20)
(1.07626 -0.00634138 -2.6746e-19)
(0.986065 -0.00588001 1.33204e-17)
(1.0283 -0.00804774 -1.17924e-17)
(1.00334 -0.000327393 -6.29139e-18)
(0.994809 -0.0224235 -2.49634e-19)
(0.976227 -0.00226522 -6.01296e-18)
(0.982958 -0.0216405 -1.02795e-18)
(1.00095 -0.0897712 1.55957e-18)
(1.00192 0.0254194 3.58765e-18)
(1.01731 0.00636223 1.12315e-17)
(1.07473 0.0180124 -1.49357e-18)
(1.00106 -0.00516056 0)
(0.98197 0.0247406 6.72915e-19)
(0.992336 -0.00815567 -7.3845e-18)
(1.00204 0.0108664 5.60663e-18)
(1.04512 -0.0232808 -1.7119e-18)
(1.05983 0.0121858 0)
(1.0475 0.00522993 3.24285e-18)
(0.956988 -0.0136949 0)
(0.910887 -0.0378176 0)
(1.04669 -0.0148811 -2.9978e-18)
(1.03476 -0.00309538 4.42966e-18)
(0.96193 -0.0316041 4.47988e-19)
(0.988327 -0.00855332 0)
(0.987529 0.0678662 -2.63577e-19)
(0.960206 0.025442 -5.44444e-18)
(0.971527 -0.0129314 5.43154e-18)
(0.999323 -0.0259555 -1.32026e-18)
(1.03254 -0.0173553 1.3546e-18)
(1.03953 0.0264773 -2.04772e-18)
(1.01947 0.00248644 -9.56301e-18)
(1.00265 -0.0156322 4.30749e-18)
(1.02025 0.00485069 -7.16178e-19)
(1.0184 -0.0094695 0)
(1.04681 0.00284333 0)
(1.01755 0.00236506 0)
(1.05775 0.00274719 -2.30623e-17)
(1.12446 -0.0168578 2.19254e-20)
(1.12306 0.0181033 -6.90854e-18)
(1.08209 -0.00539296 6.00684e-18)
(1.03072 -0.0259428 0)
(0.968931 0.0120761 -8.89728e-18)
(1.08396 0.0246022 0)
(0.978699 0.00243111 0)
(0.979163 0.0108202 0)
(1.0189 0.0141628 3.05077e-18)
(0.982877 0.0338015 -5.80555e-18)
(1.031 0.0233958 -3.47951e-18)
(0.902885 -0.0530429 0)
(0.983856 -0.00035959 9.28906e-18)
(0.998769 0.0192007 1.4517e-18)
(1.03399 0.0393446 8.95954e-18)
(0.980932 0.018391 2.3403e-18)
(0.959419 -0.00941873 4.12888e-18)
(0.935193 -0.0442883 0)
(0.973815 0.0240993 -1.85058e-18)
(1.01163 0.0140227 0)
(1.01386 -0.0124772 1.2429e-17)
(1.01578 -0.0153062 0)
(1.00935 -0.0250198 1.39048e-17)
(1.02801 0.00334028 1.82143e-18)
(1.05087 -0.051941 0)
(1.03274 -0.0219665 -4.29312e-18)
(0.952715 -0.0445171 -1.65539e-17)
(0.997539 -0.00206933 0)
(0.971562 -0.00260731 -4.70499e-20)
(0.993908 -0.00347551 -1.1839e-17)
(1.00411 -0.00130035 0)
(0.984005 0.0298864 -6.0886e-19)
(0.989297 -0.00390266 7.20251e-18)
(0.994192 0.0558335 4.9096e-18)
(0.987062 -0.0292353 5.33807e-19)
(0.985825 0.00288194 -7.03123e-18)
(0.976418 0.0135021 -1.07334e-17)
(0.99489 0.014583 1.17371e-17)
(0.967212 0.00648284 -1.18316e-18)
(1.07109 0.0126247 -6.22395e-18)
(0.944316 0.0146242 0)
(1.01585 0.0334171 0)
(1.01701 0.0112707 -3.21951e-18)
(1.0149 0.0354645 1.60977e-18)
(1.01829 -0.0102669 0)
(1.01309 -0.0613659 -1.54677e-18)
(0.994999 -0.00746782 9.60478e-19)
(1.03031 0.0227547 -1.94301e-18)
(1.01294 0.00281209 0)
(0.946016 0.0174523 -1.98141e-18)
(1.01622 0.0149123 9.37537e-18)
(1.00115 -0.00287623 1.58865e-18)
(1.00407 0.0122483 0)
(0.997879 -0.000819216 0)
(1.00691 -0.0177607 -1.8596e-19)
(1.03287 0.0127664 -6.28465e-18)
(1.01703 -0.00544949 -8.80295e-19)
(1.02227 0.000946978 6.93057e-18)
(1.05038 0.00468601 1.9509e-18)
(1.06919 -0.0147527 -2.90822e-18)
(0.989959 -0.0108786 -2.81756e-18)
(1.00432 0.0209538 3.68214e-18)
(0.964225 -0.00337423 0)
(0.934543 -0.0129068 -6.31318e-19)
(1.11462 0.00951772 -9.32844e-19)
(1.08317 0.0132689 -6.65164e-18)
(1.00709 0.00643741 -4.53292e-19)
(1.01626 0.00142458 1.00798e-17)
(1.01057 -0.00502545 -1.58217e-18)
(1.06306 -0.019804 0)
(1.01398 -0.0187197 1.01142e-18)
(1.00912 -0.0603466 2.25044e-18)
(1.00324 -0.0187997 0)
(1.02914 0.019691 -3.83448e-18)
(0.978885 0.0166922 1.0445e-17)
(0.984502 -0.0263002 -1.29973e-18)
(0.963571 0.0150078 -2.82994e-18)
(0.988195 -0.00195961 8.94148e-18)
(1.03495 -0.0027495 7.38058e-19)
(0.990299 -0.0158911 0)
(0.998913 -0.00187864 0)
(1.01858 0.0706612 1.08307e-18)
(1.02957 0.0221 0)
(1.07132 -0.0363591 0)
(1.00259 0.0110044 0)
(1.01693 0.0394468 -1.23099e-18)
(0.99042 0.0134482 1.24306e-17)
(1.04074 -0.0136299 3.58844e-19)
(0.974547 0.0318335 0)
(0.972416 0.00655359 0)
(1.00807 -0.00651177 0)
(1.05998 -0.00658829 4.16105e-19)
(1.00317 -0.00142765 -1.337e-17)
(1.07106 -0.00465363 0)
(1.01842 0.00397828 2.96311e-18)
(1.0816 -0.00618368 6.68797e-18)
(1.08052 -0.0184653 -7.30509e-18)
(1.02834 0.0226741 -1.30055e-18)
(1.01335 0.00465153 0)
(1.08572 -0.0109815 0)
(1.01881 0.0368017 4.09942e-19)
(1.01414 0.00763823 -1.12717e-17)
(0.970272 -0.026976 -7.69307e-18)
(0.96762 0.0128153 -9.57808e-18)
(0.982541 0.0159475 6.25798e-18)
(1.01469 0.0173588 0)
(1.11082 0.02937 0)
(0.988801 0.000741762 0)
(0.993281 0.00320063 -1.51707e-19)
(1.13019 -0.033992 1.73573e-18)
(1.05026 -0.0623693 0)
(1.03031 0.0432921 -1.20741e-17)
(1.0109 0.0389103 4.41879e-18)
(0.998865 -0.021005 0)
(0.991501 0.0230129 1.3634e-17)
(1.00233 -0.0383152 -5.99245e-18)
(1.06035 0.05842 3.34143e-18)
(1.00427 -0.0135562 2.75587e-18)
(1.01043 0.0192357 1.08592e-18)
(0.990656 -1.34608e-05 -3.23861e-18)
(0.979547 0.00709836 6.02558e-19)
(0.998686 -0.0402484 0)
(1.00354 0.0408141 1.05584e-18)
(0.997223 -0.00178296 1.30067e-17)
(1.00022 0.00204554 0)
(0.994639 0.00707223 0)
(1.00322 -0.0179097 -5.7104e-18)
(1.00846 0.0286866 -5.15733e-19)
(0.982654 0.0270465 0)
(1.00348 0.0172495 -2.94014e-18)
(1.01196 -0.0291054 6.54172e-19)
(0.933134 0.0290402 0)
(1.05125 0.00994067 0)
(1.02085 -0.0035519 6.59788e-18)
(1.04745 -0.0107401 -4.728e-18)
(1.02332 0.00281378 0)
(0.959056 -0.0169682 -3.68946e-18)
(0.943192 0.0173903 -1.51893e-18)
(1.03928 0.00720981 -4.29908e-18)
(0.981573 0.0296495 5.89685e-18)
(1.02046 -0.0358683 7.91772e-18)
(0.984427 0.0621628 0)
(0.946199 -0.0351523 0)
(0.961987 0.051921 -6.07052e-18)
(0.996031 0.0334034 -6.03228e-18)
(0.979975 -0.0638989 0)
(0.983229 0.0419963 1.1099e-17)
(1.01506 0.0276426 -5.40839e-19)
(0.991223 0.000457193 -1.63454e-17)
(1.01348 -0.0193906 -1.69164e-19)
(0.992267 -0.0017027 0)
(1.00465 -0.0121154 5.09483e-18)
(1.02889 0.0276077 1.05286e-18)
(1.12143 0.001115 -1.38875e-18)
(1.02518 -0.014499 0)
(0.981461 -0.00367007 -1.47793e-17)
(1.00015 0.0028209 4.46558e-20)
(0.959344 0.00346951 1.57547e-18)
(0.991522 0.00420549 8.95984e-18)
(1.04843 -0.0116499 -8.15814e-18)
(0.953782 0.0130807 -1.48965e-18)
(0.974815 0.00369675 0)
(1.09573 0.0584904 1.79055e-18)
(0.977188 0.00540016 1.04346e-17)
(1.04593 -0.00525708 8.197e-18)
(1.04532 0.0327512 -1.65981e-17)
(0.97848 0.0518998 -1.12124e-17)
(1.01204 -0.0102 0)
(1.01769 -0.00903846 -2.4685e-18)
(0.96972 0.0237919 -1.2545e-19)
(1.02243 0.0187961 1.00789e-17)
(0.993463 -0.00609836 1.57217e-18)
(0.939703 -0.0206227 0)
(1.03485 0.0395224 0)
(0.984533 -0.0160857 0)
(1.03432 0.0488371 -1.58981e-18)
(1.02613 -0.0257768 0)
(1.03262 0.0477263 -1.60422e-17)
(1.04075 -0.0286439 1.12285e-17)
(0.996855 -0.0121797 -4.54673e-18)
(1.00264 -0.00768829 -6.61225e-18)
(0.993159 -0.00696911 4.35858e-19)
(0.951563 -0.0334233 -7.00992e-18)
(0.95615 -0.0187264 7.23764e-18)
(0.966007 0.0440397 -5.71945e-20)
(0.996654 0.00330056 3.1847e-18)
(0.980792 -8.02991e-05 -1.3544e-18)
(1.00578 0.00552517 0)
(1.05361 -0.0249058 0)
(0.993023 0.00877081 -1.17111e-17)
(0.9787 0.03084 0)
(1.02752 0.0412175 0)
(1.01439 0.0676881 8.78797e-19)
(0.981036 -0.0140397 0)
(0.997721 0.0493929 1.78959e-18)
(1.0003 0.0226228 9.6851e-18)
(1.03731 -0.0052014 -8.79009e-18)
(1.00599 0.0293307 0)
(1.00366 0.00749404 -5.67546e-20)
(1.00581 0.0321932 -1.8528e-18)
(0.996431 0.0116826 3.4389e-18)
(1.04371 0.0252022 1.76472e-17)
(1.03649 0.0161511 0)
(1.01555 0.00138151 1.34325e-17)
(1.0306 -0.0768159 1.90254e-17)
(1.02933 -0.0774456 0)
(0.972881 -0.0141854 2.91576e-18)
(0.99072 0.00853756 0)
(1.05123 0.0409685 3.61009e-18)
(1.01153 -0.0207282 0)
(1.08804 0.00901399 -1.66371e-20)
(1.0318 -0.0223088 -7.00366e-18)
(1.06123 -0.0220943 1.76075e-18)
(0.963547 0.0259631 0)
(0.985084 0.0102783 -3.40882e-18)
(0.963814 0.00712171 6.15297e-18)
(0.967607 -0.0175992 0)
(1.02988 0.0593284 3.8531e-20)
(0.965482 0.00867526 8.90821e-20)
(1.033 -0.00375398 0)
(0.988085 0.0123417 0)
(1.03656 -0.0339276 1.15551e-17)
(1.02527 0.00476539 0)
(0.990838 -0.00522744 0)
(0.984465 -0.00700958 0)
(0.921202 0.000953762 3.46319e-18)
(1.00863 5.33346e-05 5.56048e-18)
(1.02099 0.0440126 -3.58029e-19)
(0.988068 -0.035227 1.65256e-18)
(1.03297 -0.021466 0)
(1.04768 0.0211587 2.91705e-18)
(1.00758 -0.026629 0)
(1.01524 -0.00112417 1.37272e-17)
(1.0164 0.00504806 0)
(0.991803 -0.0303848 0)
(0.990653 0.0346956 0)
(1.009 0.00699087 8.14698e-18)
(1.00894 -0.00346299 1.06568e-17)
(0.972862 -0.0118855 0)
(1.08054 -0.001505 -2.44611e-18)
(1.02127 0.0305956 -3.81361e-18)
(1.0177 0.00286234 -1.00853e-17)
(1.03815 0.00498476 7.82314e-19)
(1.03371 -0.0144553 0)
(0.966342 -0.00706804 0)
(0.944163 0.00635209 -2.30792e-18)
(1.0251 -0.0169467 -7.07358e-18)
(0.986292 -0.00849563 -2.89945e-18)
(0.994813 -0.00969282 1.31914e-17)
(0.994638 -0.0296629 -6.18305e-18)
(0.976963 0.0172115 0)
(0.995348 -0.027513 1.58263e-20)
(0.964964 0.0248491 6.30205e-18)
(0.991973 -0.0191073 1.48664e-17)
(1.05525 -0.0201303 5.26105e-18)
(1.0377 0.00168102 0)
(1.01387 0.0510183 2.55259e-18)
(1.01499 0.048451 0)
(1.00293 0.00646401 -3.32496e-18)
(0.990125 -0.0280447 2.22139e-18)
(0.999229 0.0229581 -1.36374e-18)
(1.01684 0.059182 5.18343e-18)
(0.996189 -0.00300382 -1.21052e-18)
(1.0276 0.00317134 -1.78694e-18)
(0.97852 -0.00955684 0)
(0.989524 -0.0106092 -9.30375e-18)
(1.00132 0.0551981 0)
(1.03247 -0.0108007 -1.95723e-17)
(1.03654 0.0110503 6.51358e-18)
(1.02977 0.0147211 0)
(0.990326 0.000781914 0)
(1.07461 -0.0331535 -8.34161e-18)
(1.01898 0.0106822 6.54857e-18)
(0.991063 -0.0111192 -2.6766e-18)
(1.03497 0.0123085 -2.52492e-17)
(0.986327 -0.00105815 0)
(1.00693 -0.0494361 0)
(0.969659 -0.00274681 0)
(0.962554 0.0368617 3.73088e-18)
(1.0217 -0.0082192 -1.32833e-18)
(1.03738 0.050097 1.06548e-19)
(1.03693 -0.0347668 -5.06397e-18)
(1.00917 -0.00975719 0)
(1.03031 0.0441895 0)
(0.997952 -0.0194145 3.53098e-18)
(0.995038 0.00869512 -1.85447e-18)
(1.03132 -0.0828199 -3.38378e-18)
(1.03745 -0.0279845 0)
(1.00883 0.0160606 3.38127e-18)
(1.01413 0.0680083 2.14901e-18)
(1.00101 -0.0117335 4.40749e-18)
(1.03808 -0.0309594 0)
(1.01247 0.0136984 -6.91605e-18)
(1.00714 -0.0133557 6.67336e-18)
(1.04403 0.0364326 -1.13562e-18)
(1.01716 -0.0235228 -1.4279e-18)
(1.02458 0.00690364 0)
(1.00121 0.000297933 0)
(1.00238 0.00796377 -1.07535e-18)
(1.02145 -0.00238419 -8.78591e-18)
(0.993687 0.0337339 -8.37006e-20)
(1.01137 0.00333408 -4.11099e-19)
(1.02609 0.0058943 4.38761e-18)
(0.981907 -0.0124234 0)
(0.977886 0.0172079 5.49927e-18)
(0.987428 0.00231256 5.724e-20)
(0.987767 -0.0225433 0)
(0.970972 -0.0458058 1.62688e-18)
(1.0096 0.0353711 8.63505e-18)
(1.01047 0.0238688 -7.88524e-18)
(0.980099 0.00431387 -7.48555e-18)
(0.950788 0.00474222 0)
(0.957531 -0.00326449 0)
(0.96828 0.00428374 3.66865e-18)
(1.0957 -0.00465895 0)
(1.07816 0.0157426 4.60755e-18)
(1.02601 0.0167581 0)
(1.00877 -0.00417843 0)
(1.05137 -0.00345456 1.27974e-17)
(1.04247 -0.0194872 8.78275e-19)
(1.02819 -0.0108272 -6.65843e-18)
(0.990683 -0.0323922 8.61492e-18)
(0.989638 -0.0188225 2.70671e-18)
(1.06972 0.0083052 -5.88557e-18)
(1.09269 0.00923403 5.07294e-18)
(0.973537 0.00474828 -4.42268e-18)
(0.982096 0.00214081 -4.53244e-18)
(1.06325 0.00781085 2.31524e-17)
(1.0868 -0.0154087 1.32846e-18)
(1.06777 -0.034726 -2.17518e-17)
(1.00351 -0.0279836 -3.763e-19)
(1.02518 0.00875544 -3.52418e-18)
(0.974165 -0.0449795 0)
(0.991813 -0.0239006 0)
(1.04156 0.0568657 -6.29894e-18)
(1.03109 0.0681583 1.78512e-18)
(1.02716 -0.0167464 0)
(1.02531 0.0426394 -9.61086e-18)
(0.988145 0.00760139 3.14139e-18)
(0.986523 -0.013354 -7.00668e-19)
(0.988451 -0.00956621 0)
(0.981303 0.0147135 5.52594e-19)
(1.00392 -0.0459988 3.67504e-18)
(0.971568 -0.00158788 -4.50272e-20)
(1.05799 0.00554179 9.87383e-18)
(1.02566 -0.0354062 8.09251e-18)
(0.987456 -0.0380572 0)
(1.00977 0.0216226 2.39028e-20)
(1.03045 -0.00401024 5.55407e-18)
(1.00002 -0.00259391 7.33889e-18)
(1.05522 -0.0447651 3.32155e-18)
(0.981666 -0.0285651 9.93769e-18)
(1.02596 0.0239448 -1.20117e-17)
(0.949933 0.0197758 -2.67159e-19)
(1.02918 0.0137477 7.26475e-18)
(1.0368 -0.0108935 -1.38787e-18)
(1.01044 -0.00239954 -7.54291e-18)
(0.99691 -0.000524921 1.77641e-18)
(1.02209 0.00589464 -5.04122e-18)
(1.01672 -6.37457e-05 -4.68001e-18)
(1.0134 -0.00539356 0)
(0.978066 -0.0135182 0)
(1.02501 -0.0321345 -1.98594e-18)
(1.01214 -0.0197362 0)
(1.04922 0.0152395 1.17289e-17)
(0.9948 -0.000437903 -7.33646e-18)
(0.919106 -0.0074201 1.85919e-18)
(1.00143 -0.0195669 6.37605e-18)
(1.00397 0.0308195 2.34172e-18)
(1.0103 -0.0306727 0)
(1.00226 0.021888 0)
(0.96432 -0.000244572 0)
(0.986683 0.00121491 0)
(0.948249 -0.0216561 8.72705e-20)
(1.03538 0.00564439 0)
(1.05848 -0.0132273 3.11024e-18)
(1.04314 -0.0119502 -1.44898e-18)
(1.04017 -0.0132984 6.60956e-18)
(0.990937 -0.00638157 0)
(0.990655 0.00243403 -1.00395e-17)
(0.999796 0.00613042 0)
(0.966684 0.0301854 2.08486e-18)
(1.07351 -0.0260603 1.13781e-18)
(0.961752 0.0268562 4.67211e-19)
(0.994416 0.000946792 -3.21018e-18)
(0.986376 0.0154997 -3.03786e-18)
(0.983214 -0.0181194 -2.07998e-18)
(1.05456 0.0900291 2.52434e-18)
(0.952322 -0.0119103 0)
(1.04331 -0.0164345 0)
(1.08184 0.0246264 -1.14728e-18)
(0.958361 -0.0178065 0)
(0.9725 0.013594 5.75377e-18)
(0.921187 -0.0385435 -1.28194e-18)
(1.01472 0.0316325 8.2037e-19)
(0.983291 -0.0136652 -7.66458e-19)
(0.989437 0.0193246 -7.03831e-19)
(1.0244 0.0161644 3.72342e-18)
(0.997157 -0.0225297 5.76139e-18)
(1.07457 -0.00403312 4.73504e-18)
(0.949051 -0.0184924 -1.79009e-18)
(1.02628 -0.0043903 1.03789e-17)
(1.04516 0.00314573 0)
(0.965333 0.0177798 3.66439e-18)
(1.02283 0.0446734 -5.04544e-19)
(1.01789 -0.0210559 -9.45816e-18)
(1.11185 -0.0760816 1.65806e-17)
(1.03901 -0.0349208 0)
(0.9484 0.0529175 1.26807e-17)
(1.04971 -0.0258223 0)
(1.07562 -5.08416e-05 1.14054e-17)
(1.06749 -0.00146866 -3.57117e-18)
(1.04627 -0.000439498 0)
(1.04729 -0.00925086 -3.94935e-18)
(1.01484 0.0210886 1.36711e-18)