/*--------------------------------*- C++ -*----------------------------------*\
  =========                 |
  \\      /  F ield         | OpenFOAM: The Open Source CFD Toolbox
   \\    /   O peration     | Website:  https://openfoam.org
    \\  /    A nd           | Version:  7
     \\/     M anipulation  |
\*---------------------------------------------------------------------------*/
FoamFile
{
    version     2.0;
    format      ascii;
    class       volScalarField;
    location    "0.25";
    object      p;
}
// * * * * * * * * * * * * * * * * * * * * * * * * * * * * * * * * * * * * * //

dimensions      [0 2 -2 0 0 0 0];

internalField   nonuniform List<scalar> 
2016
(
-49654.9
-50372.3
-26678.8
-24613.1
-43946.2
-37148.6
-4057.24
-16014.9
-45495.7
-42767.2
-41456
-7984.38
-10339.9
-40399.9
-40422.2
-6210.88
-3418.57
-43281.5
-13294.5
-7887.84
-45684.6
-4993.32
-5025.35
-36926.9
-40722.9
-36891.7
-21705.2
-18278.4
-41572.3
-41018.5
-43384.9
-13457.3
-19936
-36607.6
-38859.5
-2025.63
-2709.55
-41414.5
-35632.9
-15628.5
-7580.09
-5492.7
-42781.5
-43865.7
-49728.4
-38529.2
-20671.1
-11592.5
-8380.1
-41293.2
-17540.2
-18150.6
-6826.76
-3957.04
-32505
-20146.5
-101.315
-27498.4
-1905.77
-1637.67
-35618.4
-38832.5
-21347
-17849.6
-47613
-39656.2
-21859.1
-43006.2
-46541.3
-13242.5
-11029.5
-40525.7
-16213.8
-13512.3
-34847.2
-47637.3
-47048
-49444.4
-49813.1
-39729.5
-25643.9
-24625
-12027
-49684.4
-35578.1
-25063.7
-22271.7
-16627.6
-28137.5
-44883.8
-49886.1
-12959.5
-9289.01
-49397.4
-46072.3
-24748.5
-33276.3
-36622.6
-37755.7
-7615.62
-5131.08
-29488
-46727.3
-44297.8
-1381.62
-1775.83
-41865
-34417.2
-23726
-10378.8
-16425.7
-47728.9
-47876.9
-24295.9
-49660
-42020.6
-49118.2
-47787.8
-6834.4
-20650.4
-48432.3
-48357.2
-42945.2
-31143.1
-41345.3
-39970.2
-46038.5
-44230.6
-28350.8
-37109.9
-47083.4
-6722.52
-11332.7
-6433.3
-37548.3
-16547.6
-7804.51
-29778
-24889.9
-32898.8
-3442.85
-3960.76
-44268.9
-50789.6
-46388.1
-48660.8
-20709.8
-13985.4
-15777.7
-36699
-40141.5
-38262.7
-24607.4
-18626.4
-41409.5
-47150.8
-44280.6
-27320.7
-50389.4
-49133.1
-10341.2
-15959.5
-37998.3
-44629.7
-45762.5
-46560.4
-1910
-3229.14
-13963.6
-17254.8
-12329.5
-11212.6
-26015.3
-44631.5
-21595
-9279.91
-9148.2
-23629.7
-40933.7
-32551.8
-10967.4
-12373.1
-50225.1
-50527.4
-15894.2
-35108.4
-50321
-15794.6
-372.574
-1357.01
-34290.9
-34500.2
-46985.1
-8136.91
-10751.8
-10229.5
-12764.3
-50018.4
-43985.3
-49742.2
-49156.8
-20839.5
-35971.3
-49328.3
-13055.3
-42938.1
-39845.5
-14669.5
-40083.6
-48179.5
-48192.5
-49544.8
-16605.4
-14257.6
-38525.8
-6088.34
-6656.06
-33073.4
-28689.6
-38013.1
-38008.5
-40217.2
-44892.2
-46962.9
-49797.2
-48279.3
-15314.2
-4037.49
-4165.92
-49348.6
-20816.7
-48231
-47510.4
-44684.6
-40932.4
-43746.3
-8697.15
-6113.2
-4088.55
-5818.29
-24201.5
-15868.4
-9772.05
-42439.7
-9986.33
-8849.82
-7065.29
-43644.3
-3476.35
-3667.96
-36037.6
-34403.6
-45595.6
-45544.7
-2653.53
-2372.43
-19878.5
-163.037
488.235
-41539.8
-42493.2
-9408.92
-28087.2
-871.43
-47150.4
-21874.6
-45196.5
-44229.2
-49735.5
-50222.3
-21027.6
-45775
-47047.1
-10183.9
-8401.15
-31249.8
-25489.5
-43620.5
-19013.9
-16978.4
-50310.9
-50351.2
-37571.7
-23419.9
-44064.7
-11287.4
-25108.8
-30456.5
-44170
-45928.4
-46435.5
-19300.8
-48821
-50523.3
-48525.7
-41289.2
-36442.2
-15025.3
-14331.6
-26222.5
-48390.8
-24620
-46592.7
-15228
-50442.8
-49819.9
-49251.6
-49308
-21567.2
-46411.2
-29961.4
-49894.1
-50352.3
-42533.9
-2391.67
-4700.92
-44458.6
-33026.7
-33107.7
-5702.93
-11496.3
-50161.5
-25107.2
-37058.4
-44152.3
-10623.3
-14361.8
-39476.3
-44763
-39975
-47132.8
-47400.3
-47732.1
-44463.7
-35391
-41270.7
-45819.2
-47641.5
-2576.25
-47677.1
-38516.6
-48898.2
-44905
-44950.4
-44132.1
-46826.6
-46636.6
-21379.9
-33547.6
-34453.8
-48665
-10579.3
-9559.75
-43094.5
-48309
-49436.9
-44855.1
-35035.4
-35007.8
-49354.6
-5179.05
-3311.09
-45648.7
-26254.2
-40892.7
-9999.19
-6839.95
-5937.6
-50205.5
-14047.1
-4458.11
-2825.83
-3686.92
-2874.47
-13656.8
-40165.9
-35264.1
-48083
-48528.8
-36531.1
-37024.7
-44878.3
-45723.9
-48053.1
-31462.6
-45981.2
-48344.5
-49314.8
-47456.1
-47600.5
-43806.6
-48013
-37147.5
-45831.1
-49854.6
-8389.23
-8395.27
-39800.5
-46221.4
-49182.8
-45187.9
-39369.8
-1515.85
-28238.2
-12654.5
-48712.6
-45375.8
-45493.7
-50162.5
-48504.1
-37687.9
-38732
-44182.7
-45691
-42529.8
-6823.5
-4721.64
-21370.7
-16689.8
-46396.8
-47146.2
-49796
-49752.9
-39554.5
-11630.2
-46892
-38079.3
-50023.2
-50741.9
-47463
-17338.9
-14857.1
-40907.3
-44816.2
-39265.4
-20190.3
-32974
-47018.1
-50065.1
-15565.9
-15590.9
-49796.3
-30266
-23179.4
-35695.8
-15652.1
-33073.4
-40822.4
-26609.7
-2066.72
-2448.75
-14592.4
-46605.1
-45152.4
-43693.1
-36988
-23061.7
-37341.4
-17497.1
-14068.8
-41267.8
-26804.3
-1679.18
-887.265
-50525.2
-43743.8
-1772.68
-4028.85
-48517.7
-49183
-43626.5
-37649.2
-49611.2
-48140
-1141.09
-50520.3
-47832.4
-36420.9
-48815.3
-2752.88
-2187.72
-47931.3
-47961.1
-49586.8
-25391.2
-50663.2
-45418.5
-48808.9
-48692.4
-49882.3
-49779.7
-49536.5
-49384.8
-48947.6
-48211.3
-49139
-23211.5
-4913.52
-6951.58
-48116.2
-28305.8
-28829.8
-18682.3
-42121.6
-38258.2
-47777.6
-43676.1
-25556.6
-43198.3
-43106.6
-18990.8
-23461.7
-46190.2
-45758.2
-17610.6
-11237.2
-40046.4
-32732.3
-6709.46
-49965.2
-49592.2
-46828.8
-24220.7
-35528.8
-46675.2
1251.87
1426.86
-32995.1
-42518.9
-1365.28
-6062.25
-26422.7
-6083.78
-6904.01
-34596.9
-36218.7
-28611
-23338.2
-45012.4
-50007.7
-50603.3
-43669.6
-44257.9
-48334.5
-48499.6
-37500.2
-13757
-39803.6
-49270.9
-46735.2
-44639.4
-3234.99
-5423.06
-47153.7
-27675
-38208.5
-35958.4
-5343.77
-10045.4
-21808.8
-50374.2
-23316.9
-10521.6
-44348.7
-45595.7
-6343.28
-28819.1
-34089.9
-2895.85
-41473.4
-5103.91
-3023.8
-9430.59
-7438.27
-40339.5
-25431.5
-49360.2
-50496.4
-46688.2
-8343.2
-41988.7
-31062.1
-21929.7
-17722.4
-31660.9
-47851.5
-15720.5
-48657.9
-49981.9
-32246.5
-11692.6
-22783.8
-28286.1
-24351.4
-46844.4
-49540.3
-1680.3
-3344.52
-28065.4
-40013
-3679.39
-2170.73
-48974.2
-37337
-48758.1
-49327.3
-25151.8
-24720.6
-49554.6
-41727.9
-51043.8
-39335.3
-46225.5
-45634.4
-49752.7
-38524.6
-39514.3
-4404.18
-4566.76
-32583.5
-38531.3
-47704.3
-44801.4
-11790.8
-24138.3
-31422.7
-43825.4
-49929.3
-25361.2
-8295.87
-48200.1
-33987.3
-35135.1
-11451.1
-9405.24
-32230
-32817.5
-27849.9
-22409.4
-4296.49
-1058.35
-39306.5
-41820.7
-40580.2
-39080.2
-48960.2
-47622
-39770
-39435.3
-11622.3
-22448.2
-48397.1
-49577.2
-9998.95
-50729.1
-12156.1
-15220.2
-573.611
-1827.37
-29106
-42183.7
-45212.3
-45596.9
-49198.4
-49176.6
-9703.23
-9851.89
-16165.4
-48639.3
-24611.3
-8693.88
-7055.69
-26014.1
-5275.54
-4669.85
-43632.3
-49513.4
-49985.7
-32272.9
-32888.6
-43107.3
-43131.8
-48614.2
-48702.4
-49387.4
-45242.3
-46075.3
-11905.3
-10748.3
-47819.7
-47883.7
-11134.8
-20772.7
-16043
-43069.2
-10416
-49253.8
-9464.59
-46082.4
-33187.7
-25800
-44156.1
-49201.4
-10312.5
-44647.5
-44232.2
-27014.6
-47541.7
-18030.1
-50154.8
2029.35
2648.76
-30775.5
-7834.22
-17086.9
-28984.1
-31641.2
-47377
-29754.5
-9953.34
-10709
-6934.01
-42660.5
-42733.7
-46928.5
-17121.7
-41482.8
-45613.5
-48473.8
-12496.6
-47684.9
-42556.8
-21483.3
-215.049
-834.499
-44410.9
-22089.4
-12304.8
-41478.8
-11546.1
-26898.4
-41240.5
-39191.6
-36256.9
-31485.7
-8239.88
-14634.7
-8956.87
-36514.3
-47777.5
-50024.6
-10478.2
-26448.4
-34067.8
-29537.3
-23003.3
-46561.6
-21224.8
-44060.4
-31365.4
-8398.45
-26986.7
-10903
-7059.19
-38956.6
-35750.8
1574.79
1824.64
-25150.2
-46985.6
-42314.8
-47724.3
-11056.7
-9756.75
-37587
-38531.8
-40616.2
-40943.7
-36205
-33159.3
-41409.6
-32120.7
-40429.7
-40076.8
-48728.4
-28072.8
-40890.3
-26474.6
-28479.4
-16373.9
-41566
-41630.3
-15347.6
-48370.8
-34717
-49378.7
-79.3204
-125.429
-30909.5
-32256.5
-47751
-48533.5
-5143.79
-21233.3
-32765.9
-48626.1
-46179
-15601.5
-49398.7
-1855.13
-845.564
-8670.18
-43941.8
-48939.9
-49489.6
-15467.6
-44092.5
-49616.7
-4767.85
-49787.3
-28043.2
-50748.1
-30835
-43924.1
-7448.37
-6151.62
-44864.8
-45525.2
-49776.1
-36885.9
-35942.5
-9548.27
-48170.7
-14129.8
-43378.9
-44217.8
-49728.2
-43183.4
-19604.3
-49569.3
-46711.8
-25244.8
-25386.2
-46062.1
-28079.7
-49513.2
-49084.7
-47090.6
-452.303
-1032.19
-39041
-33444
-29295.3
-26457.6
-9744.33
-7362.29
-16052.5
-16349.2
-7986.39
-10441.5
-4188.43
-7932.49
-47175.9
-44317.5
-47926.6
-25994.6
-48855.1
-8444.65
-44777.4
-38821.5
-37434.7
-1399.19
-2773.44
-38510.8
-31490.5
-7076.27
-50247.2
-46672.7
-50165.9
-46301.6
-48192.3
-30282
-48955.6
-47035.3
-48113.1
-7881.24
-4315.29
-3770.02
-1948
-25931.1
-15841.6
-10111.8
-49525.8
-48523.4
-48712.3
-43840.8
-36675.5
-34045.8
-35523.8
-36732.1
-36304.4
-44792.6
-41430.8
-42146.6
-44532.9
-49913.9
-50269.1
-39006.3
-19505.9
-38305.5
-1936.09
-1726.59
-47073.1
-49893.6
-12580.9
-6111.73
-3541.45
-46886.9
-7920.18
-4829.26
-42717.9
-39783.4
-43795.9
-5595.2
-2656.19
-42664.6
-45484.6
-47041
-44965.1
-42135
-27999.4
-21182.5
-5437.88
-28547.4
-43304.6
-37808.8
-5783.25
-2855.65
-2649.85
-5679.13
-46484.2
-10439.8
-49398.2
-46482.4
-37278
-28177.1
-21847.1
-19962.8
-44996.8
-49384.9
-21311.7
-49058.6
-33006.5
-46013.6
-26950.1
-39049.5
-48011.2
-38702.2
-38982.2
-27371.7
-43186.9
-48955.7
-6725.87
-4339.96
-2617.32
-3976.78
-47143.2
-45308.5
-47989.6
-21126.6
-4700.21
-37388.3
-43575.5
-45255.1
-8676.25
-33117.3
-20246.1
-51046.8
-45209.7
-36956
-35510
-33635
-37007.7
-5327.62
-45541.5
-16261.3
-39992.3
-47973.9
-50558.7
-35638.3
-990.118
-48877.5
-9588.4
-32405.5
-3870.58
-39727.9
-39400.5
-24572.3
-48591.8
-1164.09
-47956.2
-48467.9
-41000.7
-43149.6
-44866.1
-22129
-31952.2
-43811.5
-38601.9
-45245.3
-3397.7
-3212.06
-48483.9
-47985.2
-48149.6
-2017.38
-46229
-9516.11
-5245.57
-19887.4
-49818.1
-44141.7
-45041.1
-6626.81
-18390.4
-45075.3
-19718
-20818.4
-45007.5
-5695.4
-7407.43
-46563.5
-9697.15
-47815.5
-46345.8
-41069.3
-38872.7
-44157.2
-33071.7
-48722.3
-32965.9
-46947.7
-27508
-46659.8
-41121.5
-15016.4
-44667.5
-7556.12
-47551.6
-14165
-19377.9
-14065.4
-46583.9
-49286.7
-47788.7
-32315.7
-32632.5
-47590.5
-41320.6
-30808.9
-31270.1
-34893.1
-47993.2
-23649.3
-43798.6
-39059.9
-45946.1
-48027.8
-46838.8
-37517.8
-34636
-15212.8
-9960.46
-45919.2
-16050
-10489.6
-35767.8
-44601.7
-46958.4
-1382.17
-2553.8
-38129.6
-18101.8
-40010.7
-49671.9
-39318.4
-30356.9
-10386
-16966.4
-41765.3
-35333.6
-46860.1
-44426.8
-39169.2
-43439.7
-21714.2
-22660.7
-47119.5
-42296.9
-5154.61
-3745.53
-26397.7
-14457.5
-49601.3
-35551.2
-42405.8
-20197.4
-44409.2
-47009.9
-23478.1
-39244
-25407.9
-49624
-40846
-8418.29
-6680.93
-3577.93
-35137.9
-47831.4
-37531.5
-46958.6
-23499.2
-2709
-455.059
-46180.9
-36705.3
-8986.17
728.035
1308.94
-40227.9
-137.17
-44022.4
-48796.1
-7972.14
-9291.11
-13242.8
-40675.4
-18753
-29121.2
-26873.2
-44862.3
-43608.5
-47418
-42896.9
-42169.4
-42622.6
-46132.2
-16818.5
-31423.8
-43574.6
-38557.9
-27885.2
-2095.02
-5946.87
-4075.09
-21666.1
-18395.5
-48001.5
-39749.8
-16798.7
-47398.2
-9244.99
-43722.4
-2214.05
-3385.68
-4151.81
-36207.8
-37962.8
-1595.47
-47509.3
-38738.4
-40341.4
-43514.7
-44779.1
-13513.6
-45382.7
-13980.6
-49495.3
-12852.1
-44552.3
-44691.8
-36137
-3098.03
-3757.26
-35096.1
-30307.2
-28889.3
-50257.6
-18541.5
-33719.5
-15470.8
-20322.6
-16978.9
-22535
-47195.9
-32983.7
-38364.7
-46919.9
-47350.1
-46611.7
-35488.9
-33998.7
-34335.9
-40847.1
-41171.7
-5599.03
-7879.73
-47069.9
-30555.7
-23045.6
-7131.68
-4791.63
-4228.07
-46213.3
-6064.02
-29553.2
-48852.7
-42327
-37927.3
-39273.8
-48353.9
-48186.9
-24794
-35235.1
-48197.3
-6232.37
-6902.69
-51014.7
-35554.6
-5500.99
-6703.66
-45330.4
-45192.5
-48525
-49174.9
243.056
-9451.28
-12901.6
-21942
-31910.2
-30461
-44618.1
-47191.6
-50140.7
-43729.8
-49547.9
-49039.6
-48508.7
-41041.4
-42040
-17407.6
-46500.5
-18310.1
-47090.8
-8714.48
-45952
-37133
-16569.9
-13706.5
-36620.9
-18351.6
-16792.7
-4010.25
-3965.09
-36912.8
-4937.96
-3059.61
-47823.3
-49393.4
-17702.3
-512.514
-18693.3
-50284.6
-21587.4
-49039
-50223.1
-35320
-24205.8
-2377.83
-1648.25
-44259.6
-10273.6
-6881.75
-41116.8
-40105.1
-12340.3
-23200.3
-22856.1
-48546.2
-46952.7
-48395.5
-30324
-34404
-45057.3
-2572.36
-1464.26
-37427.7
-50343.4
-49441.7
-46482
-38140.7
-9578.65
-12356.8
-10850.6
-12788.2
-30089.2
-50759.1
-35078.1
-35074.2
-29690.2
-33980.7
-33399.6
-35698.3
-41506
-38934.3
-20021.8
-45155.1
-43149.6
-39967.8
-3059.51
-2370.2
-37708.8
-4574.57
-3796.13
-42813.4
-31651.4
-48024.1
-46096.6
-48068.2
-49235.5
-7028.2
-6898.3
-19440.8
-16661.5
-42284.3
-33601.7
-41587.8
-48048.9
-49736.9
-15551.5
-43970.2
-35442.6
-17893.1
-19992.2
-2704.32
-2056.75
-23896.8
-35201.1
-47334.5
-46143.5
-25400.5
-49695.1
-17034.1
-32675.1
-37327.4
-40626.1
-12675
-15392.6
-11386.9
-41978.1
-2331.38
-2373.94
-47133.2
-23285.2
-38217.3
-37835.3
-31724.5
-34849.6
-5085.74
-35035.4
-34591.3
-15591.8
-39739.6
-3773.36
-2821.51
-36571.7
-47325.9
-41874.9
-44497.1
-47716.8
-37921.7
-47742.7
-43694.4
-5328.52
-3413.64
-30154
-45942.8
-39062.3
-4042.02
-6420.81
-32305.2
-33887.5
-6448.36
-45814.6
-10938.7
-15473
-27479.1
-48299.6
-47039.1
-9660.44
-13705.7
-47431.2
-46522.1
-669.177
-40309.1
-31595.1
-33645.9
-47968.3
-40523
-23109.6
-22005
-47436.2
-20806.1
-20845.2
-40921.2
-44224.1
-39820.2
-46802.1
-48599.5
-45492.3
-42890.3
-6050.32
-7606.1
-2604.94
-2898.87
-39034.5
-13213.6
-47218.1
-43233
-46681.1
-20199.8
-31179.9
-18497.3
-49368.4
-48461.3
-44127.1
-35602.6
-20387.5
-25417.2
-46603.8
-46219
-24520.3
-4143.24
-5106.07
-41582.9
-41312.4
-46858.8
-37304
-2972.71
-2980.18
-43978.1
-34496.4
-17224
-9437.18
-36078.8
-9109.56
-47842.6
-47380.6
-48230.1
-5480.72
-5993.48
-24427.1
-18526.1
-8995.68
-5949.68
-26244.2
-44721.4
-4020.01
-5000.55
-32564
-43951.4
-45010.1
-47194.7
-48221.6
-9442.34
-8777.21
-4357.07
-5990.76
-5767.4
-3945.82
-2101.25
-1956.62
-4119.23
-3429.14
-6864.96
-4831.82
-45766.6
-44973.5
-28942.5
-21052.4
-4787.07
-42240.4
-48324.2
-46418.4
-49136.4
-49055.3
-23373
-23524
-5054.52
-31570.8
-9453.29
-5775.91
-48772.2
-49082.4
-13327.9
-7674.12
-16206.6
-6054.95
-4773.6
-24591.1
-7705.87
-5133.11
-4846.49
-7385.56
-9155.07
-5967.26
-40117.7
-39790.9
-7164.47
-9807.93
-8244.58
-45026.4
-42575.2
-7186.63
-41559.1
-37376.2
-45422.5
-4059.06
-3769.18
-24646.4
-1123.33
325.063
-43123.1
-38271.1
-7998.76
-45027.3
-46237
-17901.4
-14936.7
-43988.7
-36271.3
-39009.3
-5053.46
-43725.5
-48881.8
-49041.8
-46601.9
-47109.9
-44076
-45250.4
-33188.2
-3604.23
-2544.15
-39116.6
-37299.6
-49586.7
-49007.8
-43709.4
-48332.2
-21656.9
-14171.4
-31710
-8259.49
-34385.9
-36427.1
-49656.8
-40477
-13892.6
-43219.5
-49285.5
-49097.3
-48930
-47505.8
-49007.9
-31352.6
-17210.5
-17858.2
-48871.6
-48205.6
-2608.76
-2038.3
-7132.61
-3900.01
-39949.4
-32347.1
-47135.3
-4267.73
-2644.52
-43817.2
-44496.5
-45198.6
-42739.1
-4530.69
-2523.82
-22673.9
-5962.14
-34298.3
-49616.2
-49139
-38667.6
-48797.2
-11067.7
-46465.8
-47611.5
-49581.9
-14097.8
-37353.6
-14625
-26456.7
-48507.8
-49196.8
-49422.5
-48715.4
-16482.9
-19563.1
-40245
-39082.3
-12885
-17834.4
-48419.7
-41420.4
-24012.6
-43977.1
-7575.58
-6428.32
-9872.35
-15170.1
-9824.79
-8607.86
-27285.7
-8478.67
-23083.3
-42704.6
-33916.8
-27268
-15758.1
-20011
-49370.5
-50441.4
-38663.6
-50356.2
-7809.76
-25090.7
-7275.57
-3862.22
-50746
-49438.7
-4863.1
-37738.3
-36803.4
-27311.2
-32208
-50019.8
-49987.4
-45076.5
-12469.7
-15372.8
-11567.4
-47680.5
-9215.67
-24684.5
-43897.2
-48307.6
-16714.6
-18465.3
-45660.9
-48691.4
-45522.4
-51040.9
-50102.3
-44261
-44166.9
-44315.6
-45406.4
-39712
-16068.6
-15557.8
-25768.3
-33631.1
-43669.6
-49181.6
-16854.6
-15989.5
-49538.8
-47487.8
-14164.6
-13851.3
-46071.5
-44376.4
-19517.9
-44585.1
-4487.49
-4645.62
-45034.6
-45891.3
-50669.6
-49303.1
-33646.3
-39332.5
-15023.3
-9266.39
-1112.76
-3683.91
-45940
-15752.5
-18670.9
-3532.06
-2439.3
-41240.6
-6720.29
-11667
-7460.07
-7387.73
-16507
-47564.8
-27318.7
-44560.4
-7612.43
-48257
-6913.06
-43458
-44658.7
-46385.8
-47269
-41358.9
-41247.9
-45442.2
-45888.8
-45527.5
-30816.1
-46605.3
-25608.3
-18021.8
-43016.6
-28349.6
-24091.9
-47264.9
-45142.5
-34161.8
-12900.3
-49395.2
-2331.27
-2830.37
-2046.65
-50119.4
-50344
-24974.4
-43709
-15789.2
-49821.3
-49716.4
-11532.6
-15484.4
-30286.7
-45187.9
-26399.8
-20652.3
-47462.9
-36629.8
-32514.4
-13770.3
-32856.6
-47635
-5278.48
-3067.22
-45603.8
-35575.1
-45985.1
-11564.9
-13486.6
-13768.6
-19710.5
-7058.12
-18308.2
-20600.1
-28138.7
-23776.2
-12486.1
-19028.3
-14719
-19902.2
-44198.6
-47585.7
-49373.8
-47904.2
-47546.5
-3261.07
-44072.6
-29812.7
-46600.6
-48302
-47937.2
-42352.3
-22447.7
-45914.1
-36560.6
-36595.9
-10994.5
-8903.64
-39170.8
-29954
-47385.6
-46551.5
-47328.3
-44219.8
-3575.6
-1963.04
-11977.7
-44433.5
-44476.3
-23902
-24616.9
-5604.84
-7457.22
-8589.22
-46455.5
-4510.36
-8225.11
-14366.5
-12638.8
-4899.51
-6702.29
-49547.3
-46698.1
-42955.5
-45765.1
-11357.8
-17537.5
-31865.8
-18555.4
-11834.7
-16487.2
-17099.4
-46726.6
-48569.6
-44599.3
-25480.8
-46413.7
-46372.9
-153.458
-1050.9
-41414.4
-41472.3
-47669.4
-46689.9
-46538.9
-7839.93
-41745.3
-35184.8
-16421.1
-12264
-46107.1
-47167.6
-40171.8
-34128
1919.16
-792.812
-42171.7
-43862.1
-48059.4
-49055.2
-11636.9
-7268.51
-50306.7
-44938.4
-39656.1
-41883.6
-2934.07
-32233.5
-45564.8
-47051.2
-11798.9
-46835.6
-47588.6
-47109.7
-45875
-47185.5
-12425.2
-14930.9
-48519.7
-12326.8
-47381.7
-46368.4
-12733.6
-15422
-32608.5
-37937.9
-32550.8
-40279.1
-45362
-19663.8
-41262.5
-47446.7
-37068.2
-46793.1
-41191.2
-42183.7
-15190.1
-13306.8
-38594.8
-38915.4
-44678.3
-6100.62
-4005.12
-48969.6
-19833.2
-38756.8
-15860.7
-24283.8
-25995.6
-47007.2
-41341.7
-41928.2
-48191.6
-32132.5
-1262.36
-310.547
-27977
-13864.2
-15694.8
-30299.6
-48032.8
-50047.9
-14801.1
-19871.4
-43474.7
-48618.4
-46829.9
-48674.2
-48099
-17957.3
-43001.3
-29278.8
-48582.1
-17700.9
-46087
-41932.6
-39954.1
-42781.9
-45104.6
1350.51
-17435.3
-15649.1
-42764.4
-44563.1
-15121.9
-15226.1
-9622.46
-4579.74
-3342.2
-46680
-46513.5
-7461.29
-8253
-5175.69
-3187.78
-40428.9
-35899
-47755.1
-46657.8
-49998.4
-47118.6
-45297.1
-44537.8
-43992.9
-15841.5
-15054.9
-34552
-48567.5
-10589
-10398.3
-14659.7
-27166
-27040.9
-18589.1
-4237.88
-43632.1
-42947
-48869.7
-13276.1
-7599.64
-4975.73
-18047.4
-21853.2
-9295.82
-8962.76
-20432.7
-23829.1
-10801.8
-45775.3
-44081.5
-20361.3
-24306.3
-22178.8
-46467.5
-17410.3
-21443
-14800.3
-12156
-15314.9
-13237.9
-13665.5
-19899.1
-47233.5
-46134.7
-16499.1
-17117
-46620.8
-44616.2
-38683
-46781
-44119.2
-42677.2
-37824.2
-43492.8
-43739.2
)
;

boundaryField
{
    frontandback
    {
        type            empty;
    }
    simetry
    {
        type            symmetry;
    }
    inlet
    {
        type            zeroGradient;
    }
    outlet
    {
        type            fixedValue;
        value           uniform 0;
    }
}


// ************************************************************************* //
