/*--------------------------------*- C++ -*----------------------------------*\
  =========                 |
  \\      /  F ield         | OpenFOAM: The Open Source CFD Toolbox
   \\    /   O peration     | Website:  https://openfoam.org
    \\  /    A nd           | Version:  7
     \\/     M anipulation  |
\*---------------------------------------------------------------------------*/
FoamFile
{
    version     2.0;
    format      ascii;
    class       surfaceScalarField;
    location    "0.25";
    object      phi;
}
// * * * * * * * * * * * * * * * * * * * * * * * * * * * * * * * * * * * * * //

dimensions      [0 3 -1 0 0 0 0];

internalField   nonuniform List<scalar> 
2956
(
-5.83052e-05
0.000101445
-4.31399e-05
-2.09674e-06
-2.12565e-05
2.33532e-05
-0.000304776
0.000419524
-0.000114748
-0.000195648
-0.000109128
4.4556e-05
5.43712e-05
-9.89272e-05
-2.82125e-05
-0.000128038
0.000156251
0.000159855
-1.43519e-05
-0.000145503
0.000111532
0.000185543
-0.000297074
7.39071e-05
-0.000178073
0.000104166
0.000181859
-9.12802e-05
-9.05783e-05
-6.69498e-05
1.3593e-05
5.33569e-05
-0.000379509
0.00017052
0.000208989
-0.000163685
-0.000215824
0.000150245
0.000117438
-0.000267683
7.98405e-05
7.04042e-05
0.00041193
0.000108727
0.000208491
8.85946e-05
0.000167349
-9.05857e-05
-7.6763e-05
-0.000315809
0.000181406
0.000134403
-0.000220179
0.000150975
6.92045e-05
-2.25952e-05
0.00010447
-8.18751e-05
-0.000137914
0.000112443
2.54707e-05
3.39342e-05
0.000123382
-0.000157316
-9.67398e-06
0.000254096
-0.000244422
-0.000145056
0.000135382
-0.000100601
7.23883e-05
-0.000548102
0.000231042
0.00031706
-0.000441505
-0.000106596
1.68574e-05
6.29831e-05
-0.000208267
0.000164552
4.37147e-05
-0.00019141
0.0002379
-0.000139567
-9.83329e-05
1.4486e-05
-3.30054e-05
1.85194e-05
5.18122e-06
-8.94766e-05
8.42954e-05
6.57674e-05
-6.05864e-05
-1.40783e-05
-0.000241687
0.000255766
1.72876e-05
-3.54206e-05
1.8133e-05
-0.00027549
-0.000100955
0.000376445
-2.39998e-05
-0.000251491
-0.000648757
0.000207251
-6.06561e-05
-7.18341e-05
0.00013249
-1.05416e-05
-7.14731e-06
1.76889e-05
0.00011525
-9.3044e-05
-2.22061e-05
0.000119112
4.82377e-05
-1.38446e-05
3.47457e-06
1.037e-05
0.000263415
-0.000268547
5.13216e-06
-0.000411438
0.000359601
5.18367e-05
-0.000102597
0.000548115
-0.000445518
-0.000505269
0.000402672
0.000137496
-9.29408e-05
0.000673097
-0.000124982
2.43408e-05
-0.000180255
0.000592185
-0.000162138
0.000370629
-8.08843e-05
-4.71538e-05
0.000111531
4.23238e-05
0.000117531
-0.000113861
0.000170641
-5.67808e-05
0.000181148
-5.80182e-06
-2.59764e-05
0.00021648
-0.000251897
8.81665e-05
0.000163731
0.000201537
6.18778e-05
-0.000153658
0.000168143
-2.40908e-05
-0.000129567
-0.000184363
0.000108524
7.58387e-05
6.84618e-05
0.000133075
-0.000146866
-0.000113144
0.000167515
-4.17008e-05
1.9105e-05
3.79981e-05
7.36937e-05
-0.000111692
0.000106769
-2.39192e-05
-8.285e-05
-5.83644e-05
-4.98363e-05
0.000108201
5.00309e-05
-1.20331e-05
0.000106134
6.35563e-07
-0.000305924
5.4027e-05
-6.44301e-05
-4.36787e-05
0.000108109
-0.000169951
0.000105521
-5.34025e-05
3.06485e-05
2.27541e-05
-5.93708e-05
5.96793e-06
0.000199296
-7.25061e-05
-0.00012679
0.000197023
-0.000146956
-5.00676e-05
-0.000147211
0.000276862
-0.000129651
-0.000131765
0.000288842
-0.000157077
1.92408e-05
2.26167e-05
-4.18575e-05
3.53937e-05
-2.15728e-05
-1.38209e-05
0.000168125
-0.000410747
0.000242622
-8.7659e-05
-4.25196e-05
0.000130179
2.79157e-05
-0.000175127
-0.000103881
1.12807e-05
9.26005e-05
6.49854e-06
0.00017536
1.68037e-05
7.1858e-05
-0.000132514
4.20523e-05
-5.2594e-05
0.000184889
-2.64608e-05
-0.000158428
0.000181828
-0.000107921
0.000439741
-0.000271617
-5.56589e-05
-4.82216e-05
0.000131901
-7.59944e-05
-5.59068e-05
-6.41436e-06
-0.000262133
-8.478e-07
-0.000162838
-2.19631e-05
2.11151e-05
0.000278375
-0.00017327
-0.000105105
0.00012147
-0.00016555
4.40805e-05
8.05264e-05
-0.000137998
5.74714e-05
-0.000121501
3.38837e-05
-0.000173811
0.000106862
-8.78636e-05
0.00017603
0.000191027
-0.000316191
0.000125165
-3.69601e-05
-0.000183219
-6.09694e-05
-0.00025484
-0.000136954
4.26845e-05
9.42692e-05
-1.55495e-05
-0.000121404
-0.000149405
0.000340431
-4.98442e-05
3.04865e-05
1.93577e-05
2.38376e-06
-4.67748e-05
4.4391e-05
7.73207e-07
5.48633e-06
-6.25954e-06
3.6474e-05
6.2108e-06
-0.000303509
-0.000124954
0.000428463
1.73579e-05
-0.000105016
6.02678e-05
-2.37938e-05
2.95053e-05
-6.88374e-06
-2.26216e-05
-0.00016577
0.000283208
-0.000288873
0.000201009
0.00017294
-1.39346e-05
-0.000159006
0.000126256
4.6685e-05
-0.00014474
0.000263126
-0.000118386
3.67215e-05
-0.000181461
1.37528e-06
7.37434e-06
2.67912e-05
-3.41655e-05
-2.59708e-06
-1.18786e-05
1.44757e-05
0.000292956
-0.000286165
-6.79068e-06
-8.88161e-05
-0.000209599
0.000298415
-0.000331892
-0.000173377
0.000230626
-0.000254626
0.000415625
-9.3662e-05
-0.000321963
-0.00029282
-1.06892e-05
-0.000143997
0.000188682
-4.46854e-05
-2.82736e-05
-0.000115724
-0.000160252
-0.000145673
-0.000421341
0.000315264
0.000106077
-0.000234288
0.000233074
1.21368e-06
-0.000105177
-1.17394e-05
0.000116917
0.000101053
-6.22476e-05
-3.88052e-05
0.000111386
1.00839e-05
-4.81986e-05
-4.32634e-06
5.25249e-05
-5.42341e-05
0.000177968
-0.000123734
0.000241307
-3.40679e-06
0.000185114
3.26398e-05
-0.000217754
0.000311003
-0.000349892
3.88895e-05
-0.000104547
7.3836e-05
3.07105e-05
-0.000267914
5.8065e-05
0.000209849
-2.31116e-05
-9.79493e-07
-8.69903e-06
-4.55355e-05
0.000127452
7.18434e-05
-1.38577e-05
-0.000156093
0.000270119
4.30944e-05
5.79583e-05
7.72849e-07
0.000160509
-9.53439e-06
0.000206198
-2.47929e-05
-4.71294e-05
-2.65273e-05
7.36567e-05
5.27743e-05
6.24753e-05
-0.00016697
6.37286e-05
0.000103242
3.03772e-05
-0.000197348
0.000400255
-0.000400255
0.000653686
-0.000653686
0.000329697
-9.86651e-05
-0.000231031
-0.000415756
-5.62995e-05
0.000472056
-0.000220582
-0.000238492
1.79104e-05
-3.89955e-05
-5.90898e-05
9.80853e-05
9.74858e-05
5.24782e-06
-0.000102734
0.000349945
-0.000169705
-0.00018024
0.000345799
-6.1621e-05
-0.000284178
0.000113231
0.000232568
-3.04976e-05
-0.000117525
0.000148022
0.000228957
-0.000228957
-0.000155984
6.79838e-05
8.80006e-05
3.33736e-05
0.00011801
-0.000151384
0.000208652
3.05958e-06
-0.000211711
1.53172e-05
6.52722e-06
-2.18444e-05
1.01794e-05
5.13784e-06
0.000342281
7.33433e-05
0.000346396
1.38436e-06
4.61834e-06
-6.0027e-06
3.64666e-06
-0.000128629
-3.47713e-05
0.000435026
2.16448e-05
0.000632041
-0.000231806
-0.000163694
0.000395499
2.22905e-05
6.42182e-05
-8.19867e-05
1.77685e-05
-5.64198e-05
0.000177716
-0.000121296
-0.000108846
0.00023447
-0.000125625
0.00017115
-0.000137776
0.000386198
-0.000177546
5.23922e-06
-5.50831e-05
2.17009e-05
7.57848e-05
-4.15682e-05
2.33289e-05
1.82393e-05
-7.72076e-07
2.70678e-06
-1.93471e-06
-0.00039408
0.000149316
-1.74156e-05
4.87458e-05
0.000171257
0.000117585
-2.11823e-05
-5.83657e-05
7.95479e-05
4.19491e-06
9.00691e-05
-9.42641e-05
-0.000283526
-0.000132229
-0.000180027
-8.76562e-05
0.00016934
-0.000184363
0.000133807
-7.57941e-05
-5.80124e-05
-0.00032448
0.000259762
6.4718e-05
-0.000350212
2.57317e-05
3.1156e-05
-2.69609e-05
-5.09099e-05
-8.70038e-05
0.000174298
-0.000140363
-2.51382e-05
-5.57462e-05
-9.95566e-05
-5.62707e-05
0.000155827
0.000130867
-0.00015879
2.79226e-05
3.72885e-05
9.35792e-05
-0.000252532
-0.000129394
3.88088e-05
0.000109444
-7.89397e-05
-3.05045e-05
3.07605e-06
-4.46448e-05
-1.91178e-05
8.33362e-05
0.000273397
-0.000199156
-0.000222184
-8.34045e-05
-0.000150883
-1.69673e-05
-3.12315e-05
0.000357387
-0.00023651
-0.000120877
-2.23577e-05
1.54738e-05
3.98487e-05
6.95951e-05
-9.02023e-05
4.26717e-05
4.75305e-05
0.000158316
-3.3569e-05
-0.000124747
-5.04386e-05
-4.26059e-05
0.000150249
-0.00021187
-4.67967e-05
0.000197046
-3.22267e-05
-0.000138611
0.000170837
-0.000189571
0.000157345
0.000111684
-3.73015e-05
-7.43826e-05
-0.000697268
0.000697268
-0.000571982
0.000571982
-1.77982e-05
0.000176115
-0.000152563
8.12095e-05
-0.000233773
-0.000250682
2.38396e-06
9.77697e-05
-0.000123746
0.000125658
5.54897e-05
3.28139e-05
-0.000284304
1.79311e-05
1.48828e-05
-0.000123124
0.000168859
-4.5735e-05
2.26439e-05
5.68709e-05
-7.95148e-05
2.90384e-05
-7.57738e-05
-0.000282548
0.000159214
0.000123334
-0.000306162
5.06504e-05
0.000255511
-0.000140065
-7.20704e-05
0.000212135
0.000111493
-9.79e-05
-1.61078e-05
0.000127601
0.000312671
8.22644e-05
-0.000394935
-0.000128668
0.000110424
1.82437e-05
-0.000636569
0.000468278
0.000168291
0.000110839
3.3364e-06
-0.000114176
0.000120509
-8.82503e-06
-6.8887e-05
-2.13152e-05
0.000172397
-9.18705e-05
-0.000136159
7.78529e-05
-4.17922e-05
3.9695e-05
-0.000234135
-4.84132e-05
7.1281e-05
-6.12889e-05
-9.99211e-06
8.02445e-05
-8.96414e-06
-9.96204e-05
-0.000134152
9.46149e-05
-0.000333107
2.27042e-06
1.68465e-05
-1.91169e-05
-4.25189e-05
-1.66834e-05
3.38006e-05
-1.71172e-05
0.000306929
5.04574e-05
6.39879e-05
-5.94171e-05
-4.57079e-06
-2.19513e-05
0.00010075
-0.000112364
6.52342e-05
-9.59657e-05
0.00025518
0.00018753
-6.48431e-05
-0.000122687
4.94377e-05
1.55161e-05
-6.49538e-05
8.44025e-05
-0.000114899
0.000207713
-0.000205442
-1.07012e-06
9.56833e-05
-9.46132e-05
-0.000101279
-4.2135e-05
0.000143414
-7.09021e-05
0.000105016
0.000244929
-0.000121619
5.87179e-06
2.50767e-07
-6.12255e-06
1.23317e-05
-0.000157388
-2.65274e-05
7.70707e-05
-0.000155391
7.83207e-05
6.12269e-05
1.58435e-05
0.000302022
-0.000401579
-3.95288e-05
0.000128698
-8.91691e-05
0.000238518
0.000121082
-2.78306e-06
-5.37324e-05
5.65155e-05
-0.000354986
0.000118475
2.26584e-05
-4.38346e-05
2.14494e-05
-1.83731e-05
-1.69824e-05
2.28543e-05
-0.000118253
-0.000115882
-0.000241016
-9.74725e-05
0.000338488
-0.000144705
4.195e-05
9.18566e-05
-5.2608e-05
5.19603e-05
6.47769e-07
0.000110768
0.000128451
-0.000314154
0.000185704
0.000149841
-0.000433255
0.000283414
-8.52384e-05
0.000102417
-1.71785e-05
-4.34187e-06
0.000128236
-0.000123894
-8.38155e-05
7.94739e-05
-0.000133782
-0.000152383
-0.00046693
0.000257331
7.35206e-06
-9.51725e-05
5.61769e-05
-0.000150081
1.95881e-05
-7.60076e-05
1.14303e-05
-0.000120276
-0.000110675
6.1277e-06
9.02043e-05
0.00020985
-0.000151786
-3.30892e-05
-0.000164258
4.35875e-05
-7.66762e-05
0.000114636
-0.000133754
-0.000149978
5.86976e-05
1.18128e-05
9.00457e-05
-0.000101858
0.000106187
-4.26844e-05
0.0001296
-8.69152e-05
-0.000138557
9.5872e-05
-0.00028475
0.000315132
-3.03824e-05
-4.01979e-05
6.69662e-07
-0.000153909
0.000179741
-2.58324e-05
4.56526e-05
-2.30359e-05
-0.00035696
-9.69025e-06
0.000227803
-0.000218112
-9.43653e-05
8.4675e-05
-2.89309e-05
3.94556e-05
-1.05247e-05
2.55599e-05
-5.44915e-05
-5.44181e-05
7.29377e-05
-3.94272e-05
0.000149308
-0.00010988
-0.000123243
1.42906e-05
-1.40397e-05
7.67529e-05
9.40917e-05
1.64699e-05
-3.31532e-05
9.46844e-05
9.45432e-06
-0.000104139
1.6126e-05
-2.03882e-05
4.26219e-06
-4.39369e-05
3.14483e-05
1.24887e-05
0.000368687
0.000233789
0.000134897
2.40707e-05
-1.94525e-05
0.000309889
-0.000143011
-0.000166877
0.000204753
-0.000250604
4.58512e-05
-0.000126256
0.000171199
-4.49433e-05
-0.000223059
1.22097e-05
0.000210849
-0.00021302
3.03797e-05
0.00018264
-9.74183e-06
-6.20926e-05
-2.75524e-06
-4.39222e-06
0.00038542
-7.27492e-05
4.65686e-05
-0.000198558
0.000280823
-3.85049e-05
0.000164163
0.000222932
-0.000125162
-5.40247e-05
4.82226e-05
5.70368e-05
0.000159443
0.000162409
-0.000112972
-5.62295e-05
4.1952e-05
1.42775e-05
4.77087e-05
-4.03342e-05
-2.55037e-05
0.000119773
0.000105004
-0.000130508
5.65515e-05
-4.47384e-05
5.93076e-05
-2.75671e-06
-5.81728e-05
0.000102254
-1.28878e-06
-0.000176784
-5.05288e-05
-1.67566e-05
6.72854e-05
-1.04976e-05
0.000101127
-0.000119858
1.87312e-05
2.50017e-05
-2.75991e-05
-3.73265e-05
-2.18047e-06
3.95069e-05
2.31113e-05
-3.49896e-05
3.44064e-05
-8.49347e-05
-1.05829e-05
-8.58617e-05
9.64447e-05
6.71606e-05
-0.000241468
-0.000108424
0.000129302
-2.81754e-05
5.16094e-05
-8.12924e-05
2.9683e-05
0.000217402
-0.000123311
-3.24385e-05
0.000109191
7.98408e-05
0.000130009
-1.82628e-05
-9.98224e-05
0.000118085
-0.000147364
0.000129102
-7.96508e-05
-0.000161366
5.10129e-05
-5.04695e-05
-5.43416e-07
0.00030748
-0.000321832
-0.000133809
7.75385e-05
-0.000170122
-3.6541e-05
0.000206663
1.00602e-05
-4.73865e-05
4.51534e-05
-0.000168277
6.78293e-05
-6.13304e-05
8.17942e-05
-0.000122557
4.07623e-05
-1.97025e-05
-0.000140555
0.000160258
-0.000134299
1.89908e-05
0.000115309
1.50176e-05
-8.31371e-05
7.42442e-05
0.000188883
-0.000271192
0.000177324
0.000132565
2.6877e-05
0.000177877
-8.79336e-05
3.35155e-05
0.000356183
0.000209819
-0.000287991
7.81723e-05
0.000114565
-5.84697e-05
-5.60952e-05
-1.74285e-05
-5.55036e-06
2.29788e-05
-1.03292e-05
8.0285e-06
2.30066e-06
3.64495e-05
1.31377e-05
-4.95872e-05
-0.000296645
5.31607e-05
-3.05167e-05
1.34419e-05
-0.000268068
-1.8513e-05
-3.43824e-06
6.93775e-05
3.1373e-05
0.000122204
-7.56839e-06
0.000107683
-0.000201345
-0.000146881
8.85172e-05
5.54269e-05
0.000154392
0.000110012
-7.35618e-05
0.00038907
-0.000158027
4.44911e-05
-0.000288193
0.000243702
7.01678e-05
-0.000139035
6.8867e-05
-8.45486e-05
0.000362898
2.61726e-05
-1.34443e-05
0.000128481
-7.97348e-05
0.000449527
-0.000449527
0.000428934
-0.000428934
-6.10201e-05
3.94479e-05
0.000100751
-4.46671e-07
-0.000100304
0.000114685
8.13399e-06
-0.000122819
-6.84693e-05
0.000119482
-0.000159703
0.00012311
3.65932e-05
-7.69339e-07
-0.000240918
3.63624e-05
-7.17834e-05
-2.70388e-06
0.000116245
-0.000112909
0.000171109
-0.000115585
1.46294e-05
7.56784e-05
-2.06551e-05
-5.50233e-05
-9.63915e-05
-7.16601e-07
-0.000162977
-0.000558491
0.000582831
-0.000155818
-8.35466e-05
-4.17195e-05
0.000125266
-0.000332507
0.000332507
-2.0524e-05
-0.000119803
0.000140327
-2.32172e-05
-0.00011478
0.000288253
-0.000159802
0.000396295
-0.000246454
5.40978e-05
-3.69006e-05
-1.71972e-05
-8.58284e-05
0.000139926
-1.00328e-05
3.68233e-05
1.10508e-05
-6.36585e-05
-0.000103932
5.99947e-05
-0.000329089
-1.5894e-06
8.94953e-07
-2.44282e-05
1.80654e-06
9.4669e-05
-5.67864e-05
8.0857e-05
-0.000175793
-7.48117e-05
7.9814e-05
-0.000222826
2.51361e-05
-4.95646e-05
-3.5116e-05
0.000141241
-0.000106126
-3.3268e-06
-8.83922e-06
-0.000323668
-1.50016e-05
-5.38698e-06
5.05331e-05
5.39368e-05
3.75566e-05
5.71279e-05
0.000108792
-6.31401e-05
-4.56524e-05
-1.10234e-05
-1.81235e-05
-1.67217e-05
0.000120439
-0.000140142
0.00010202
2.00214e-05
-1.05668e-05
0.000142561
-0.000143813
-7.81609e-05
0.000221974
0.00014774
7.51916e-05
-2.66783e-05
0.000174419
0.000107919
6.6462e-06
0.000400121
-9.80982e-05
0.000258373
0.000141747
-0.000141289
0.000305926
-0.000164637
0.000126256
-0.000133203
0.00011102
-3.01881e-05
-8.0832e-05
1.39048e-05
2.87671e-05
2.45416e-05
-0.0002476
-0.000104205
-4.15389e-05
0.000145744
0.000136307
-0.000240512
-9.00911e-05
-6.99081e-05
0.000159999
2.51875e-05
-0.000166477
-8.04511e-05
-5.81064e-05
9.06582e-05
-0.000202879
-0.000494389
-0.00018463
-0.000387352
-0.000153908
7.32665e-05
7.60408e-05
2.79402e-05
-2.72548e-05
-6.85472e-07
7.2906e-05
-3.38787e-05
-3.90274e-05
-1.29226e-05
-6.44499e-05
-2.44581e-05
8.8908e-05
-0.000177911
6.03865e-05
-0.000188359
-0.000180139
5.54004e-05
0.000124739
0.000356585
-0.000391356
0.000563521
-0.000541876
3.01624e-05
-3.01624e-05
-3.8323e-06
8.33809e-05
-0.000118548
-3.65216e-05
-2.99852e-05
6.65069e-05
-3.8559e-05
-0.000146669
0.000185228
4.27489e-05
-7.92701e-05
0.000102199
-0.000140704
0.000282918
-0.000264303
-1.86143e-05
-1.38668e-06
-4.81142e-05
0.000116098
-0.000189131
-2.64703e-05
-1.5322e-05
-1.54967e-06
-1.77712e-06
0.000133242
-3.24547e-05
-0.000100787
8.79445e-05
-8.90144e-05
-0.000126482
-9.23908e-05
0.000218872
-0.000365811
0.000239329
2.51418e-05
-0.000125646
0.000186873
9.43674e-05
-0.000144204
-4.95555e-05
4.95555e-05
-2.08625e-05
-9.32224e-05
8.02954e-05
-6.87565e-05
-1.15389e-05
4.32477e-05
-6.3415e-05
2.01673e-05
-2.24448e-06
0.00019996
9.03374e-05
-8.19634e-05
-8.37401e-06
0.000178338
-3.16767e-06
0.000173687
-0.00025385
-8.7731e-05
-8.66047e-06
-7.55263e-06
0.000173247
-0.000256582
0.000427839
7.71036e-05
-0.000104798
2.76944e-05
-0.00011231
-0.000108924
8.2245e-05
3.44423e-05
-7.77148e-05
0.000122205
0.000212911
0.000102221
1.2233e-05
-0.000203145
0.000249547
-4.64024e-05
-8.53962e-05
0.000161761
-7.6365e-05
5.64928e-05
-0.00022337
0.000219257
-0.000173405
0.000138944
9.00123e-05
6.41677e-05
-9.2441e-05
-1.70315e-05
-1.48162e-06
4.88532e-05
0.000103132
7.88791e-06
0.000236929
-1.71928e-05
-2.95823e-05
0.000159689
8.36254e-05
-0.000243315
0.00045611
-0.000247616
-0.000208494
0.000101124
1.63753e-05
1.3786e-05
-0.000160085
-0.000205726
0.000237195
-0.000129512
-3.09307e-06
-1.80393e-05
2.11323e-05
-0.00033185
4.36559e-05
-0.000236956
0.000269595
1.98204e-05
-0.000109911
-0.000289762
0.000121122
0.00016864
1.96276e-05
0.000109397
-0.000129024
-0.000161395
1.403e-05
-1.70111e-05
9.88051e-05
0.00011155
-0.000196945
9.87808e-05
-0.000301925
-8.11119e-05
0.000351231
-0.000100075
0.000126334
-2.62585e-05
0.00021928
-5.72703e-05
0.000180822
-6.43225e-05
0.000120777
-9.76655e-05
0.000110757
-0.000110757
1.13803e-05
1.00692e-05
-1.52343e-05
-1.74786e-06
-0.000115676
-0.00029507
-0.000306372
1.66559e-05
-5.05346e-05
2.57101e-05
-2.95428e-05
-8.55379e-06
7.85934e-06
-4.49076e-05
-6.48285e-05
7.26972e-05
-7.86871e-06
-3.8193e-05
9.50635e-05
-0.000112677
0.000143163
0.000141281
3.83271e-05
-0.000179608
0.000143203
-1.92245e-06
-0.000150322
-7.75024e-05
1.61313e-05
-2.99518e-05
-0.000205533
-0.000134102
-1.28403e-05
0.000146943
-5.69755e-05
0.000112376
-9.33655e-06
-0.000146055
-0.000187408
1.77028e-05
0.00016807
-5.33851e-05
-0.000157264
-0.000124768
0.000282033
1.5666e-05
-0.000121768
0.000145624
-0.000244289
-8.09344e-05
0.000151102
-0.000117795
0.00010822
9.57568e-06
-7.84666e-05
-3.93291e-05
-7.33969e-06
2.28556e-05
-0.000321207
6.4625e-05
-0.000278887
0.000169007
-0.000166433
-0.000112455
-0.000201989
0.000192125
0.000113944
9.8967e-05
-0.000103551
-0.000161335
3.36465e-05
-0.000133722
-0.00020649
-2.24671e-05
3.06074e-05
4.32279e-05
2.39822e-05
5.93544e-05
9.60998e-05
-7.21177e-05
1.0889e-05
-3.98193e-05
2.89303e-05
2.32699e-05
-0.000106817
0.000136571
0.000219612
1.62049e-05
-1.92981e-05
6.7402e-05
4.13906e-05
9.16952e-06
-0.000480399
0.00047123
0.000203791
-7.773e-06
0.00018549
2.47405e-06
0.000231997
1.11796e-05
-8.32503e-05
7.6911e-05
-2.62611e-05
-7.009e-05
-5.8578e-05
0.000333427
-0.000120522
-0.000212905
-9.97604e-05
0.000207669
-0.000107908
8.20671e-05
-1.11439e-05
-3.84121e-05
-0.00017467
8.92125e-05
8.54577e-05
-0.000233407
3.50723e-05
0.000198335
-0.000176646
5.10001e-05
5.57031e-05
-1.02042e-05
-4.54989e-05
-8.14801e-05
-0.000197342
0.00011984
-6.34558e-05
-8.68666e-05
0.000105099
-8.54721e-05
-0.000198111
-2.70932e-05
-2.63721e-05
0.000159615
1.7779e-05
-4.51652e-06
1.2545e-05
-2.84609e-05
-0.000235842
9.97752e-05
-0.000110254
-5.37704e-06
0.000115631
4.92479e-05
-0.000159502
-5.97227e-05
0.000126883
-0.000134374
-1.36626e-05
-4.60604e-05
-4.34493e-05
0.000120552
0.000127751
-0.000165684
-8.98638e-06
-9.59457e-05
-0.000137461
7.26289e-05
-7.88515e-05
6.22261e-06
8.88923e-06
6.37401e-05
0.000134555
-0.000171096
-3.38577e-05
-6.21081e-05
-7.64241e-05
0.000177175
0.00024767
8.57567e-05
0.000466405
-0.000457236
-0.000118587
-0.000135263
1.22313e-05
-0.000212609
0.000182389
3.02193e-05
0.000157428
-9.3261e-05
-0.000133355
4.74945e-05
1.92921e-05
-2.55514e-05
-7.17536e-05
0.000131782
-6.00282e-05
9.84704e-05
0.000240018
0.000129918
-5.64444e-06
1.78539e-05
-2.36876e-05
0.000220912
-9.75778e-05
-5.7224e-06
4.1329e-06
-0.000191408
3.68923e-05
0.000154515
-0.00030582
0.00013416
0.00017166
-0.000143308
0.000234306
-9.09977e-05
9.1823e-05
2.21207e-05
0.00029299
3.53514e-05
-1.85052e-05
4.25187e-05
1.51497e-05
-5.76684e-05
-9.5844e-05
-1.24748e-05
0.000122899
-5.05417e-05
0.00012756
-7.70183e-05
-0.000215836
9.02109e-05
-0.000146116
2.48192e-05
-2.12903e-05
5.76515e-05
-3.63612e-05
-9.80877e-06
2.62787e-05
1.72799e-05
-1.72799e-05
-0.00043476
0.000328164
-3.83181e-05
-0.000310626
0.000241739
0.000352947
-0.000146284
0.000124184
-5.35896e-05
-7.05945e-05
6.66899e-05
-8.38832e-05
0.000189818
-0.000267979
4.24301e-05
0.000130266
6.44739e-05
0.000381943
-8.29802e-05
-0.000187787
0.000130811
0.000145649
0.000119754
6.79779e-05
-9.75603e-05
5.77313e-05
-0.000241677
0.000163963
-0.000486742
0.000245065
-3.45948e-05
0.000636299
0.000535022
-0.00024482
3.35244e-06
4.53842e-05
-1.08614e-05
-1.5609e-05
-0.000278735
0.000129217
0.000169444
-0.000236185
6.67406e-05
0.000141752
0.000307774
0.000105266
0.000323668
5.0472e-05
8.08982e-05
0.000140014
5.54673e-05
1.59661e-05
-7.14333e-05
-0.000253486
0.000234872
-0.000187628
0.000300859
3.56519e-05
0.000149575
-8.14333e-05
-7.69109e-05
4.44552e-05
2.07274e-05
-5.03088e-05
4.23146e-05
8.18696e-05
6.3591e-05
3.09886e-06
3.88322e-05
-0.000145349
-3.55032e-05
-5.79989e-05
9.35021e-05
-0.000185332
0.000216488
-0.00052671
0.000281512
0.000245199
2.77687e-05
4.54982e-05
-0.000159005
-0.000150058
3.99327e-05
-4.66875e-05
9.10778e-05
-9.97951e-07
-9.35991e-07
-0.000319444
-0.000167298
-0.000188601
0.000173689
-5.05794e-05
3.03813e-05
-0.000103424
0.00034064
-0.000237215
-3.03366e-05
-0.000154995
0.000106232
7.17354e-05
-5.40392e-06
-1.46203e-05
9.40945e-05
4.45704e-06
0.000310807
8.40419e-05
0.000149032
0.000310887
0.000237303
7.35843e-05
-0.000176143
1.18847e-05
0.00017175
9.07232e-06
-0.000128797
0.000119957
-0.000116098
0.000275788
3.27947e-05
4.04741e-05
-7.32688e-05
6.4939e-05
0.00020851
-1.25891e-06
-2.91835e-05
-3.50144e-05
-3.97975e-05
1.18599e-05
-0.000234686
-3.38303e-05
-6.57901e-05
-0.000236915
0.000158807
-0.000162374
3.56706e-06
3.06299e-05
0.000128177
-2.51034e-05
-4.39569e-05
3.41486e-05
2.9177e-06
-4.19453e-05
2.1933e-05
-9.61688e-05
-0.000193593
-4.1291e-05
5.79466e-05
-6.06073e-05
-0.000153766
0.000214374
0.00010358
-5.4382e-06
-9.81414e-05
-0.000181979
-0.000158676
-2.33025e-05
-2.77657e-05
6.45091e-06
-0.000241962
-6.86642e-05
-3.88597e-05
2.1662e-05
5.16226e-05
5.65968e-05
1.93119e-05
3.23109e-05
-4.14046e-05
9.58679e-05
6.15241e-06
0.000198473
0.000142167
0.000106686
3.08106e-05
-2.58194e-05
-1.98329e-05
-4.26385e-05
-6.21599e-05
0.00022517
-0.000225618
-0.000106467
8.51565e-05
-2.14276e-05
0.000154604
-5.26701e-05
-0.000101934
9.33217e-05
6.12821e-05
-3.00017e-05
6.31406e-06
-0.000314815
-2.84859e-05
-6.97609e-07
-1.41955e-05
7.1052e-05
-0.000141954
-0.000341251
-0.000185459
0.000246673
-0.000228742
4.88715e-06
-0.000129004
-0.000256908
3.35378e-05
-0.000129631
-4.3774e-05
-0.000148071
0.000139372
4.1519e-05
0.00012929
0.000437684
-0.000162461
-0.000275223
0.000579087
-0.0001935
-0.000385587
-9.86055e-05
-4.36351e-05
0.000142241
-0.000165595
0.000295513
-5.46819e-05
5.18991e-05
5.24295e-05
-0.000120755
-2.58643e-05
-0.000132812
3.66555e-05
-0.000211525
0.000174869
8.00133e-05
0.000176546
0.000100512
-0.000277058
0.000117188
0.000177408
0.000100938
7.88034e-05
-0.000109042
0.000113929
-0.000101698
0.000196313
-8.08371e-05
9.16487e-06
-8.88994e-05
-1.32645e-05
-2.88706e-05
-1.76247e-05
-3.59645e-05
0.000323666
-7.86008e-05
-3.13596e-05
-8.1317e-05
-0.00010254
-7.43787e-05
0.000280051
-0.000171325
0.000178095
-8.95011e-05
1.34958e-05
-5.75772e-05
0.000146656
-0.000207264
0.000276916
-0.000479795
0.000179623
-0.000364253
-5.53253e-05
2.53233e-05
2.18924e-05
-3.86488e-05
-2.83228e-06
0.000115208
0.000268264
0.000127236
9.26904e-05
-0.000135846
4.31554e-05
-9.16854e-06
5.31311e-05
-0.000131598
-4.74699e-05
-0.000187013
0.000187013
-0.000104824
-8.2963e-05
6.50861e-05
-0.00016991
0.000133624
-0.000299219
-2.35026e-05
8.50083e-06
-7.09771e-05
4.74744e-05
6.87867e-05
-6.87867e-05
-2.33502e-05
-0.000143126
0.000100938
-6.82781e-05
9.96039e-05
-0.000157584
1.70292e-05
-4.95863e-05
-0.000373634
-0.00022216
8.0572e-05
-0.000172963
-8.61874e-06
0.000258166
3.21327e-05
0.000129629
9.56833e-05
-9.81038e-05
-0.000117261
5.73428e-05
5.99181e-05
-0.000189893
0.000181274
-0.000109125
0.000141257
-7.77805e-05
0.00018136
-9.4613e-05
-3.61646e-05
2.00467e-05
-0.000418909
-3.06178e-05
-0.000374971
-5.39632e-05
-3.27575e-05
-0.000107946
0.000213197
0.000110468
-5.27869e-05
-4.67125e-06
0.00058499
-0.000202796
-0.000382194
0.000423045
-0.000125792
-0.000297253
0.000313921
0.000395097
6.01487e-05
-0.000265869
0.00020572
-0.000213017
0.00020368
-8.10595e-05
-8.13145e-05
3.11856e-05
0.000110566
-2.35313e-05
-8.12124e-05
-2.99274e-05
-8.88909e-06
-0.000109123
5.53907e-05
-7.98931e-05
4.21476e-05
3.78657e-05
5.0013e-05
-2.81202e-05
0.000150435
-0.000180772
0.000135061
3.16379e-05
-2.22914e-05
7.99435e-05
-4.7707e-05
-0.000112029
-0.000263772
-4.44928e-05
-0.000172926
-3.29364e-06
-8.44538e-06
5.05616e-05
9.06041e-05
-0.000147874
-2.31496e-05
0.000133906
-9.92072e-05
-0.000144942
1.76768e-05
0.000120631
-0.000138308
-7.45118e-05
-0.000138097
-2.74832e-05
-9.07695e-05
2.21242e-05
-3.06782e-05
9.07933e-05
-9.59557e-05
5.16249e-06
-0.000205869
0.000249921
2.89358e-05
-1.37863e-05
3.96419e-05
-2.81821e-06
-5.60599e-05
-5.36552e-05
0.000168834
-0.000143053
-2.57816e-05
0.000270896
-9.43508e-05
6.53062e-05
3.05617e-05
0.000182389
-0.000221828
3.87153e-05
-8.88855e-05
5.01702e-05
-4.06209e-05
-0.000222064
0.000117471
0.000104593
-7.16285e-05
-3.01579e-05
0.000243355
8.91608e-05
-2.88929e-05
-6.12274e-05
9.10978e-05
8.90701e-05
-0.000373921
0.000260777
-0.00012625
-2.97025e-05
6.35181e-06
1.01803e-05
-2.48009e-05
-7.04045e-05
6.36399e-05
-0.000216579
-7.14119e-05
1.06826e-05
0.000245083
4.9881e-05
-3.17483e-05
4.39791e-05
6.89116e-05
-0.000100271
-7.01231e-05
-0.000136257
-3.71199e-05
-0.000101401
3.69312e-05
6.44694e-05
0.000579087
0.000437684
6.05403e-05
-9.73022e-05
-7.35439e-05
0.00013941
-0.000213492
-7.30185e-05
3.23161e-05
-2.00848e-05
-3.99795e-05
-7.59031e-05
-7.38365e-05
-2.14347e-05
0.000112228
-3.69856e-05
0.000130522
2.15149e-05
-2.48086e-05
-4.72767e-05
4.89113e-05
1.83744e-05
6.25847e-05
-1.36732e-05
-0.000255053
0.000297005
5.64994e-05
6.04175e-05
-9.61258e-05
0.000174317
4.12467e-05
9.99951e-05
-2.23907e-05
0.000106017
0.000109757
-9.10261e-05
0.000138944
0.000123066
4.5768e-05
5.00841e-05
0.000196716
-3.99877e-05
-0.000106068
0.00025933
-0.0002479
0.000200646
-0.000181057
-1.84168e-06
6.44262e-05
5.35618e-05
4.80904e-05
-5.82942e-05
-0.000229899
7.61059e-05
0.000153793
-0.000175871
3.84121e-05
-8.99085e-05
4.67862e-05
-5.97407e-05
-9.86113e-05
3.88706e-05
0.000130069
-0.000289973
7.2235e-05
3.96812e-05
-4.72694e-05
7.58823e-06
-4.60101e-05
0.000179319
-0.000162023
-1.72962e-05
0.000152947
-0.000269454
-0.000169679
-0.000291
3.61601e-05
-0.000205577
2.23583e-05
5.63524e-05
-5.11042e-05
-1.40841e-05
-2.59546e-05
4.24584e-05
-2.81677e-06
5.77499e-05
0.000189009
-0.00012886
-3.44882e-05
5.80458e-05
-2.92032e-05
-0.000151569
-1.64254e-05
-5.65931e-05
-3.9271e-05
9.26282e-05
-2.98148e-05
-6.22673e-05
2.43956e-05
0.000535022
0.000636299
-1.11806e-06
-3.46922e-05
-0.000122686
-0.00020649
-7.37513e-05
-9.26495e-05
1.14371e-05
5.53731e-05
0.000134465
-9.45318e-05
9.94867e-05
-0.000218135
0.000118648
4.97793e-05
-9.4543e-05
4.47637e-05
6.22294e-05
-3.63474e-05
-3.55999e-05
4.64885e-05
0.000171498
-2.85724e-05
-2.98974e-05
1.57137e-05
-0.000103647
-7.58588e-05
2.10756e-06
0.000204601
-2.55513e-05
-0.00015506
-5.84324e-05
-0.00011086
0.000125348
-3.96803e-05
-7.10766e-05
-0.000125322
0.000235079
-4.49165e-05
0.000125815
0.000564855
-0.000136392
2.46837e-05
-4.92252e-05
-6.93616e-05
0.000632041
0.000435026
2.63947e-05
-0.000196285
0.00010192
1.90089e-05
-3.55165e-05
1.65076e-05
-0.000100539
-0.000183377
7.52533e-06
-0.000105858
-5.08179e-05
-0.000125828
8.13788e-05
0.000149029
-0.000230408
3.97312e-06
2.83433e-05
1.62579e-05
4.35093e-06
1.96866e-05
0.00010558
-1.56234e-05
7.17339e-05
-5.61105e-05
8.23792e-05
-0.000330486
0.000317042
0.000337307
-0.000337307
-2.6977e-05
-0.000102737
1.47208e-05
-0.000195219
-0.000332238
0.000119653
3.82399e-05
0.000182818
-2.9596e-05
-0.000153222
-0.000235381
9.23288e-05
-7.22824e-05
4.78245e-05
1.81431e-06
-8.45352e-05
8.45352e-05
2.21238e-05
-0.000135998
-8.03337e-05
8.55024e-06
-0.000224049
-1.68697e-05
0.000203178
7.59793e-05
0.000279088
-0.000608177
5.59013e-05
-2.56376e-06
6.65101e-05
8.29062e-05
-1.63961e-05
0.000258379
0.000107165
-0.000365544
8.80267e-05
4.15727e-05
0.000100925
0.000157454
2.2731e-05
-0.000103791
2.73502e-06
-1.98274e-05
-0.000101703
-3.83972e-05
1.18698e-05
5.5915e-05
0.000101549
-0.000159285
-0.000139442
6.93523e-05
-0.000103791
8.24707e-06
0.000132
-0.000128435
0.000306914
-0.000178479
4.95821e-05
0.000151064
6.51459e-05
0.000194184
2.60509e-05
9.63312e-05
8.79152e-05
-2.05131e-05
0.000128781
-9.71432e-05
-8.43338e-05
-2.57291e-05
6.01356e-05
2.85854e-05
-5.43144e-05
0.000170576
0.000150715
1.8292e-05
0.000112318
5.31636e-05
-0.000137661
6.07502e-05
-0.00020335
0.000121917
7.18357e-05
-3.49045e-05
-0.000418909
-0.000374971
2.60327e-05
-0.000186251
-6.21074e-05
-6.5795e-05
6.9768e-05
-2.26486e-05
0.000143938
-2.41642e-05
-6.46038e-06
-2.71086e-05
9.06404e-05
2.93913e-06
5.82589e-06
0.000148768
0.000102852
-8.58234e-05
1.59896e-05
8.24701e-05
-9.84597e-05
-1.051e-05
7.96453e-05
-6.91353e-05
-2.47188e-06
7.47686e-05
-8.35715e-05
-0.000201148
5.92626e-05
-0.000127751
1.28863e-05
0.000139433
7.94397e-05
-0.000356555
-0.000113781
0.000273779
0.000147416
-3.1318e-05
-0.000122622
-2.7356e-05
8.40096e-05
5.63168e-05
6.6271e-05
-0.000107253
0.000258355
7.37464e-07
-2.91475e-05
-3.97336e-05
-8.60659e-08
-2.63936e-05
1.72975e-05
-4.36911e-05
1.80634e-06
-9.65065e-05
0.000134534
-0.000246824
0.000249299
-0.000172544
0.000164771
6.62487e-05
-1.85407e-05
-0.000185051
0.000308118
2.24024e-05
-0.00013331
0.000110907
-0.000171629
0.000103351
-3.61633e-05
0.000135767
-3.49496e-05
-6.55523e-05
-9.23894e-05
0.000102018
-9.62829e-06
-0.000450786
-9.83305e-05
-1.97463e-06
-8.10333e-05
-1.18702e-05
0.000178755
3.31322e-05
-0.00016416
-0.00016719
-0.000115303
-0.000128461
-0.000148598
9.10781e-05
0.000167953
0.000304102
-3.12555e-05
0.000116161
-0.00013387
0.000273303
-0.000102069
3.4462e-05
6.76069e-05
-7.01579e-06
0.000115411
-8.09683e-05
5.76515e-05
5.77594e-05
9.79661e-05
-8.71303e-05
-0.000131005
-5.37208e-05
-4.08224e-05
6.27412e-05
-2.69478e-06