/*--------------------------------*- C++ -*----------------------------------*\
  =========                 |
  \\      /  F ield         | OpenFOAM: The Open Source CFD Toolbox
   \\    /   O peration     | Website:  https://openfoam.org
    \\  /    A nd           | Version:  7
     \\/     M anipulation  |
\*---------------------------------------------------------------------------*/
FoamFile
{
    version     2.0;
    format      ascii;
    class       volVectorField;
    location    "0.25";
    object      U;
}
// * * * * * * * * * * * * * * * * * * * * * * * * * * * * * * * * * * * * * //

dimensions      [0 1 -1 0 0 0 0];

internalField   nonuniform List<vector> 
2016
(
(-3.1301 -75.6832 -1.97017e-15)
(-13.7759 -20.5488 -6.46637e-14)
(-136.468 -84.7702 0)
(-29.0178 -146.67 0)
(-87.6631 45.1861 0)
(-91.806 46.904 2.70732e-15)
(-78.0496 -35.8954 3.01274e-16)
(-58.4202 66.3169 0)
(93.8545 79.8524 -4.37007e-14)
(32.8353 136.446 0)
(-47.119 85.0153 -5.49625e-14)
(252.645 92.2309 9.71623e-15)
(247.373 64.3978 0)
(264.821 65.6294 0)
(48.1096 76.9667 0)
(318.953 8.90772 0)
(181.809 -31.3504 0)
(155.197 -3.76159 -2.10867e-14)
(57.7307 -245.944 -5.26323e-15)
(44.6055 179.091 3.41266e-15)
(51.9579 31.3686 5.65155e-14)
(155.523 33.7315 3.47109e-15)
(4.85806 -137.295 -3.61384e-15)
(239.151 26.5281 5.66756e-15)
(-144.547 141.055 1.05007e-14)
(-58.5512 88.5474 0)
(213.076 254.627 -1.19715e-14)
(394.613 218.254 1.24695e-14)
(67.4693 -147.696 2.45632e-14)
(102.991 -5.99892 -1.96609e-14)
(183.168 -0.262347 2.55455e-14)
(237.64 2.59974 8.95311e-15)
(70.7284 28.6102 1.8366e-14)
(-24.5505 43.6244 -2.07593e-14)
(21.7627 116.766 0)
(-126.253 -152.106 0)
(40.7128 66.3746 0)
(-90.4636 -8.47775 1.71437e-14)
(102.115 214.583 2.81046e-14)
(387.762 174.113 -8.06508e-15)
(-123.723 -131.158 1.0932e-14)
(-35.4931 66.6795 -8.78124e-15)
(69.4412 61.3252 0)
(67.8945 34.6017 4.63915e-14)
(-16.014 -12.639 -3.01789e-14)
(75.2891 195.934 0)
(279.81 109.596 0)
(528.099 77.7904 0)
(548.402 259.532 4.91221e-15)
(18.6599 50.7206 1.31279e-14)
(413.128 117.575 -1.15943e-14)
(576.047 167.585 2.30153e-14)
(489.616 99.147 6.86226e-16)
(301.873 -95.663 -4.44335e-16)
(-23.4138 61.8992 -1.84022e-14)
(-64.7663 -115.564 0)
(-170.151 -127.214 -6.51999e-16)
(109.45 -82.0652 0)
(124.636 -84.0108 0)
(137.386 -119.946 0)
(-49.574 -190.564 0)
(92.4936 94.697 1.12589e-14)
(19.8815 3.08951 -1.96256e-14)
(12.8253 -83.932 -1.72667e-14)
(91.7091 51.4783 4.76867e-14)
(88.4077 191.839 2.58082e-14)
(-144.441 17.6626 0)
(-145.071 -60.5223 2.6542e-14)
(68.3527 -8.99373 0)
(-36.8982 -43.1212 0)
(12.1978 65.8574 -1.39363e-15)
(57.2857 84.8973 -1.57112e-15)
(-15.4184 27.8328 1.76186e-15)
(92.94 -83.2885 3.28581e-15)
(-120.604 -82.2839 -3.80348e-15)
(93.2681 -56.4943 -1.71321e-15)
(81.4456 -44.2378 0)
(51.0846 -26.8791 0)
(4.22137 -17.8654 5.80893e-14)
(122.634 84.3744 2.4891e-14)
(93.0328 -142.204 -2.43853e-14)
(-251.805 -62.1685 3.85616e-15)
(191.275 58.0924 1.45934e-14)
(-4.11419 -36.3953 1.54135e-14)
(42.8573 -50.9326 -8.21379e-15)
(-324.293 146.983 -1.67383e-14)
(57.1978 -198.271 6.23767e-15)
(-109.366 -50.4788 8.16204e-16)
(-119.84 -91.0975 0)
(29.6535 135.075 3.46242e-15)
(-11.3345 -25.3982 -3.17624e-14)
(-140.778 61.9849 -1.12782e-14)
(-51.345 -45.7338 9.20978e-15)
(110.173 -7.54157 -6.02923e-14)
(114.468 61.9349 5.00756e-14)
(-332.605 155.233 1.78207e-14)
(-102.374 -13.1555 0)
(185.307 -114.881 0)
(176.967 223.408 -2.3909e-14)
(182.855 62.6318 8.20367e-15)
(32.176 57.2602 -6.86536e-15)
(99.7122 99.1562 0)
(102.746 -5.3727 -2.90652e-14)
(179.975 15.8134 -7.07646e-14)
(-82.8642 -43.9901 0)
(-3.56552 -77.9486 0)
(80.6705 18.0078 4.45489e-14)
(-112.474 2.89722 -2.12707e-14)
(-274.369 -187.151 1.91904e-14)
(196.836 92.1442 -3.55806e-15)
(258.56 -131.882 5.49429e-15)
(84.2021 22.5598 8.67703e-14)
(89.9057 -3.52663 -5.88917e-14)
(-266.912 -137.01 0)
(-51.6763 -26.1356 -8.90514e-15)
(18.6354 38.7096 -4.83123e-14)
(-4.83965 -38.3551 1.42698e-14)
(25.2953 -57.1448 -6.14786e-14)
(-169.063 -9.57951 -6.51215e-15)
(51.1482 -100.307 -1.68677e-14)
(-29.5908 11.2029 5.8352e-14)
(6.64763 -58.0345 6.41282e-14)
(272.88 42.9688 0)
(167.357 -33.3067 5.37454e-14)
(139.865 0.894491 0)
(81.1857 -150.431 6.33324e-14)
(223.264 75.4444 0)
(189.984 76.2666 2.1942e-14)
(189.623 -112.533 0)
(-25.1325 17.9681 0)
(94.1377 7.20575 -2.81142e-14)
(52.5784 -185.59 0)
(-236.266 26.8282 7.00475e-15)
(155.699 212.332 -3.88565e-15)
(174.819 139.096 -2.00289e-14)
(244.103 166.23 -1.11476e-15)
(-289.886 -135.212 6.73052e-15)
(96.3776 -98.5821 0)
(-2.49481 7.55185 0)
(-236.856 2.24501 -1.15331e-14)
(-186.267 -64.7857 0)
(-105.57 5.17278 -1.74225e-15)
(94.481 39.036 -5.14918e-14)
(-14.0948 -101.679 6.30158e-14)
(63.8996 35.8451 2.82499e-14)
(56.5192 -88.0821 1.52964e-14)
(23.1615 -20.7884 -1.18228e-14)
(129.401 -87.529 -9.81185e-15)
(-132.151 -20.9002 -9.49345e-15)
(291.798 45.9482 -1.98003e-14)
(26.6055 99.3198 -3.27084e-14)
(-40.5821 131.051 0)
(-38.2469 -62.6805 1.42454e-14)
(-26.3793 68.4522 2.27095e-14)
(62.7592 63.0234 0)
(77.8914 -70.7357 2.57265e-14)
(106.663 36.2448 5.68198e-14)
(-306.57 -127.51 -1.06536e-14)
(-41.2486 -24.261 -5.30798e-14)
(16.3212 52.6747 -2.19739e-15)
(34.7791 125.964 0)
(28.0844 -166.485 0)
(42.3859 -14.6485 4.78038e-14)
(66.1381 -12.8061 3.22325e-14)
(90.1522 60.5215 -2.95841e-14)
(131.785 47.3543 5.6814e-14)
(225.811 -51.768 -6.0735e-16)
(354.225 38.699 9.56765e-16)
(-242.254 -73.7616 5.85584e-15)
(-210.364 -156.939 -1.03928e-14)
(72.8216 -104.801 0)
(138.989 -123.137 3.70556e-15)
(-30.9461 14.4159 -7.25049e-15)
(4.78081 -11.275 6.32629e-16)
(301.622 -63.7545 -1.56843e-15)
(143.308 -129.637 -4.93558e-15)
(168.674 -209.25 -9.4682e-15)
(-29.1204 -66.9659 -1.03022e-14)
(59.0445 43.3643 0)
(166.02 -117.737 0)
(-71.8037 20.5397 -4.67945e-15)
(-135.487 48.8772 1.46108e-14)
(19.7136 -4.34656 9.93813e-14)
(-5.66616 -11.5178 0)
(265.89 107.087 -8.14334e-15)
(231.837 95.5578 0)
(3.55145 2.74797 -3.68608e-14)
(203.661 5.6928 -6.27031e-15)
(366.912 52.9351 2.21862e-16)
(553.001 -93.2219 5.37487e-17)
(82.0758 193.094 1.14757e-14)
(200.794 77.2924 5.69798e-14)
(26.7875 -46.9059 0)
(-22.256 115.496 -1.04462e-14)
(-30.9556 -128.217 1.15257e-14)
(-10.5697 67.2259 0)
(-124.431 -71.378 -1.06706e-14)
(12.6948 -59.2458 0)
(101.219 28.6048 5.62115e-14)
(43.716 15.1629 0)
(4.75936 35.1483 -5.39307e-14)
(243.291 248.342 1.35587e-14)
(57.5084 -9.25039 -4.51123e-14)
(33.7996 -11.7118 -3.18348e-14)
(123.832 -125.341 -1.42892e-14)
(138.02 43.0679 0)
(41.1096 35.1334 5.16918e-14)
(-194.045 -111.385 8.89612e-15)
(149.13 72.1811 -6.10672e-14)
(133.992 -20.3913 5.78924e-14)
(178.517 -33.8488 -6.4175e-14)
(59.3981 -76.1695 -2.25135e-14)
(185.624 111.029 1.04049e-14)
(131.163 174.439 -3.98159e-15)
(17.4449 32.4507 0)
(70.5026 -11.6101 -9.60292e-15)
(-27.8886 -50.9859 1.18587e-14)
(-99.753 55.8627 1.0203e-14)
(167.891 65.0126 0)
(71.3984 -17.4711 4.69109e-14)
(184.323 26.9921 -5.32005e-14)
(122.333 206.2 3.42228e-17)
(163.636 8.91951 -2.56355e-14)
(-18.0802 -67.4866 0)
(19.5128 -3.64122 0)
(7.97419 -96.9014 8.4e-15)
(-321.623 17.926 7.38945e-15)
(-262.877 -98.1033 -1.77582e-15)
(-163.958 23.0688 0)
(27.3992 27.9144 -1.46768e-14)
(-237.28 94.4039 -4.15434e-14)
(-20.4396 11.5749 -1.4272e-14)
(-18.0673 -93.5325 3.08608e-14)
(-94.8985 -27.4541 -1.56218e-14)
(81.8912 69.913 -2.59653e-14)
(75.9417 38.7056 2.24815e-14)
(193.249 -162.795 5.21059e-15)
(245.876 -39.7975 4.43306e-15)
(214.921 -26.577 -5.59831e-15)
(176.071 -74.7434 0)
(-51.5907 0.0798658 0)
(323.889 -190.301 -5.45131e-15)
(265.583 149.278 3.63928e-15)
(182.81 144.213 2.26239e-14)
(232.475 -22.7551 0)
(239.108 -29.6372 0)
(194.335 215.362 4.77599e-15)
(94.0774 82.7717 5.52283e-14)
(212.037 -115.872 0)
(122.235 -34.8423 0)
(260.036 95.2659 8.60628e-15)
(77.2906 190.702 0)
(114.735 63.8673 4.03153e-14)
(102.55 -38.2651 0)
(82.8373 50.6217 0)
(24.7744 -107.339 2.12437e-15)
(288.228 53.003 -2.58624e-14)
(168.801 -28.5043 4.78209e-16)
(154.598 -41.5409 -6.00013e-16)
(47.5554 117.616 -2.11489e-14)
(-13.4977 57.81 2.41827e-14)
(-230.358 -112.575 0)
(172.369 79.3817 0)
(-318.926 -62.9856 -1.93276e-16)
(29.0646 -47.3336 0)
(-86.2084 -149.935 0)
(-60.0267 39.5865 -3.18396e-14)
(155.976 76.6495 5.15764e-14)
(73.7404 -75.5945 -2.98905e-14)
(28.6535 -1.23142 -3.07603e-14)
(178.149 -1.66105 7.21487e-16)
(107.841 19.4685 -2.8283e-14)
(-8.48805 32.0746 5.68493e-14)
(111.602 53.7993 5.0904e-15)
(101.413 -166.619 8.64627e-15)
(90.3168 152.933 -9.6808e-15)
(-81.9756 145.768 2.99348e-15)
(-6.01802 -32.5185 -2.34835e-14)
(-290.509 98.3711 1.39756e-14)
(-108.329 -13.7557 1.27229e-14)
(20.4552 -18.719 0)
(16.2431 -52.7175 0)
(23.7658 -72.8853 5.90315e-15)
(106.928 70.846 2.31142e-14)
(110.968 -10.838 2.19319e-14)
(-7.83474 113.169 0)
(-70.7258 -117.894 0)
(22.7846 213.913 0)
(158.15 39.3088 0)
(25.2332 -54.763 0)
(87.3753 -42.6574 -3.10939e-14)
(195.055 -77.8573 -7.02186e-15)
(-4.43688 -49.4361 7.19717e-14)
(38.0178 -82.4566 -6.10001e-14)
(3.95827 10.9482 6.07647e-14)
(5.64064 7.71057 -1.33763e-14)
(1.74199 0.408649 -4.02731e-14)
(54.6894 -44.9207 -1.7066e-15)
(21.9096 -75.5178 -1.63226e-14)
(258.644 93.4521 -3.10425e-14)
(-37.5268 -2.12883 5.97483e-14)
(210.576 91.4283 -1.37673e-14)
(86.8259 -43.9913 1.37345e-14)
(-218.177 130.809 0)
(17.3906 -11.9709 5.4935e-14)
(44.5534 -40.7329 2.6606e-14)
(14.6868 16.0855 1.48717e-14)
(-7.60737 -4.53099 -1.39924e-14)
(191.663 45.8341 -4.95646e-15)
(-176.861 81.8186 -6.41522e-16)
(289.586 -125.995 1.18535e-14)
(38.0028 -67.812 0)
(89.7312 69.5616 -3.13735e-14)
(107.184 -72.0622 2.17969e-14)
(240.796 6.11245 -2.11469e-16)
(332.415 -42.6005 -2.05985e-15)
(129.953 23.2271 -5.67083e-14)
(7.4839 44.2708 2.98194e-14)
(-60.2414 60.5869 1.93113e-14)
(-16.2073 -138.716 -1.91137e-15)
(-377.376 -5.25713 -5.04388e-15)
(32.3466 -29.6102 1.84042e-14)
(83.6488 -23.3935 -6.83898e-16)
(129.362 178.032 0)
(93.6706 42.3572 -3.0464e-14)
(34.7558 117.824 5.84333e-15)
(2.65251 -150.743 -7.47298e-15)
(114.88 157.327 -6.02991e-15)
(128.854 62.7844 -2.75855e-14)
(66.5891 171.402 0)
(143.766 10.0022 2.75973e-14)
(95.0278 -8.19082 -6.24822e-14)
(-39.166 -53.7428 5.26721e-14)
(-189.073 87.6493 0)
(101.915 64.6449 1.79271e-14)
(92.2195 -73.3942 2.29351e-14)
(118.117 69.8277 1.71917e-14)
(33.0473 71.2953 2.93606e-14)
(211.743 -240.852 -1.70939e-15)
(-64.6144 12.2338 -5.77132e-14)
(149.203 -55.8903 9.64295e-15)
(52.7922 -64.123 -2.01386e-15)
(243.455 57.3772 -4.54761e-14)
(-137.934 -51.5393 0)
(-78.4925 -81.6493 1.63707e-15)
(61.6073 -24.0041 2.96822e-14)
(-21.8815 -24.9658 0)
(-39.3538 -20.6869 2.51844e-14)
(151.585 7.56931 0)
(101.677 100.964 -4.93176e-15)
(5.40202 -7.5206 -2.87375e-14)
(-60.4716 -117.73 -4.88497e-15)
(59.8353 155.139 5.67322e-15)
(50.8947 -40.323 6.90054e-14)
(43.7046 -9.73983 0)
(-15.1563 -39.6937 -4.53687e-14)
(-96.6941 40.3115 -2.33509e-14)
(171.579 169.094 -4.44627e-14)
(144.954 262.511 3.35769e-16)
(-49.0909 -25.4209 1.67457e-14)
(-88.6117 -203.723 0)
(106.622 174.304 -3.32256e-15)
(148.712 105.59 4.69678e-14)
(-144.889 74.5455 -1.24837e-14)
(-130.355 7.97387 -2.13145e-14)
(23.785 -84.3939 -2.32324e-15)
(59.9088 45.1645 1.74503e-15)
(-397.514 44.0609 1.88123e-15)
(-7.94782 -35.7647 -3.24731e-14)
(-152.829 31.1338 -2.17608e-14)
(48.1783 -188.315 0)
(57.312 -51.4049 -2.15041e-15)
(68.3321 -64.6552 0)
(165.473 -25.7567 0)
(84.6226 -18.0991 0)
(-52.1997 -34.299 4.04093e-14)
(76.8287 22.7128 -2.13836e-14)
(88.4255 -65.7452 -6.23792e-14)
(106.943 -32.1681 0)
(-123.019 27.5262 2.15047e-14)
(130.042 62.7347 -1.06325e-14)
(-64.4285 37.1554 1.65177e-15)
(146.415 22.6507 -1.52729e-14)
(-4.6477 -7.29011 0)
(259.186 52.4376 0)
(107.396 11.0803 0)
(-29.8562 63.481 -3.03387e-14)
(9.32678 -24.3645 3.02185e-14)
(-74.2612 20.5285 5.01064e-14)
(-82.9313 -28.3797 0)
(51.0131 39.5805 5.21579e-14)
(130.229 -13.2519 1.77506e-15)
(212.565 -58.5196 -5.90637e-15)
(180.285 -33.2815 0)
(73.0327 -41.8988 0)
(87.1975 39.4768 -4.49123e-15)
(-58.0514 39.807 4.06916e-15)
(158.548 45.0733 -1.53499e-15)
(82.0911 -125.992 -6.88339e-14)
(15.8076 179.883 0)
(-130.392 -124.321 6.14202e-15)
(-18.6832 98.2692 4.57343e-14)
(-221.591 29.119 9.11057e-16)
(12.2026 53.9608 -4.67777e-16)
(-61.3416 169.124 -4.73658e-15)
(15.1051 -23.7491 0)
(126.639 129.703 6.40141e-14)
(-28.8206 55.0699 9.87568e-15)
(57.6637 -84.267 -1.53245e-14)
(133.369 19.046 2.97477e-14)
(70.3608 -2.09457 4.33406e-14)
(157.351 -79.1278 2.19002e-14)
(22.9531 106.69 0)
(157.07 24.8181 -2.65777e-14)
(-210.696 -72.203 -2.06873e-14)
(19.2824 -177.317 3.12083e-15)
(155.384 140.586 -2.48226e-15)
(1.02859 -3.27653 -2.775e-14)
(380.301 -332.922 0)
(-169.659 25.5479 -5.01672e-15)
(-57.9662 -8.90054 -3.82478e-14)
(8.21001 35.2775 0)
(-16.4285 -5.79728 3.08536e-14)
(-66.2611 -29.3517 1.94466e-14)
(223.689 -184.562 -6.86827e-15)
(91.8168 -45.2801 -5.74923e-14)
(181.415 70.7262 -3.22874e-14)
(-1.80608 -9.52455 3.36412e-14)
(-30.9193 -75.5315 0)
(-19.2739 -154.298 -5.60163e-14)
(180.748 74.6898 -1.0294e-14)
(90.8234 112.575 -1.40847e-14)
(6.58048 107.708 1.75651e-15)
(-223.129 -46.968 -1.02037e-16)
(-7.10795 41.3846 1.88796e-14)
(257.832 148.738 1.39005e-14)
(-27.6285 149.281 3.12299e-14)
(-33.8659 -127.834 0)
(58.6838 -79.9878 1.64172e-14)
(206.461 103.799 -1.36322e-15)
(-201.437 -32.3167 1.3285e-14)
(71.0375 -25.958 -3.19458e-14)
(20.8143 -248.695 0)
(18.991 241.348 0)
(-30.0983 -73.4301 -9.4904e-15)
(-208.474 -85.6396 1.02849e-14)
(-157.396 83.3369 8.43815e-15)
(-41.1143 52.9811 -2.21736e-14)
(3.43907 114.44 -2.54075e-14)
(-120.868 -128.581 1.95107e-15)
(-28.3089 29.4906 -2.20881e-15)
(-216.727 -138.526 2.68738e-14)
(-5.82923 -123.7 -2.72641e-14)
(82.9566 97.3513 3.69463e-15)
(-72.108 53.4138 -2.34487e-14)
(-136.485 15.0296 0)
(29.1637 -53.0188 0)
(-47.8774 168.019 -4.07798e-14)
(562.914 103.672 -2.80709e-14)
(184.512 139.631 1.80747e-14)
(-61.0879 100.309 -2.4604e-14)
(91.0975 246.977 -2.06409e-14)
(321.138 -17.6095 0)
(196.263 -35.7547 0)
(-39.0823 -58.8721 -1.41109e-16)
(68.8459 -42.6083 -1.49886e-14)
(215.767 76.2038 0)
(314.366 -135.807 2.91666e-15)
(19.8954 89.6264 -7.4241e-15)
(-2.19117 -62.6698 1.45685e-14)
(65.8965 4.03191 -5.22903e-14)
(-1.32167 -48.6925 0)
(-41.8494 39.2251 6.08398e-14)
(69.6015 83.4779 0)
(-410.827 -6.3813 2.15813e-16)
(19.6076 4.4626 2.53107e-14)
(11.2717 20.6806 0)
(29.7198 16.6914 0)
(15.146 -94.4624 0)
(96.4169 154.027 5.4496e-16)
(-74.7994 -184.259 -4.72549e-16)
(1.8523 -41.305 -4.82531e-16)
(-70.1323 -39.5739 2.7717e-14)
(4.95956 -3.77322 1.79301e-14)
(-102.395 361.665 2.28037e-14)
(36.0229 -7.26161 -7.81636e-15)
(79.0838 -12.7832 5.64754e-14)
(111.647 -51.1543 0)
(15.8765 45.1026 -2.88799e-14)
(6.42245 -7.79224 -4.94519e-14)
(14.3452 16.2752 0)
(57.399 -24.3756 1.59192e-14)
(195.993 17.2678 3.00874e-14)
(99.1171 -7.95337 6.26764e-14)
(59.3608 -14.3842 0)
(82.3782 -70.6828 3.09149e-14)
(-128.274 150.221 0)
(189.275 -45.2589 -1.24219e-15)
(102.481 -22.0121 1.92107e-15)
(-80.1411 -7.85741 -2.80852e-14)
(211.46 162.223 0)
(258.364 104.243 1.81285e-14)
(-16.8014 -240.377 0)
(119.394 139.389 -5.25311e-14)
(19.6414 130.029 2.66289e-14)
(108.28 -12.0849 1.60603e-14)
(-4.90677 42.3054 0)
(-213.633 110.604 6.30572e-15)
(-214.133 53.4189 0)
(-72.3969 129.989 -2.27299e-14)
(27.4037 136.951 9.27056e-15)
(74.7145 -105.431 -3.26759e-15)
(130.867 78.6221 -9.04889e-14)
(171.377 24.9947 0)
(402.087 -406.477 -5.27528e-15)
(335.765 318.03 3.62708e-15)
(162.128 -68.6077 0)
(73.1685 114.316 0)
(124.623 -2.55778 0)
(-27.1093 25.7407 3.27344e-14)
(-67.0708 21.8424 0)
(-78.654 54.0203 -2.89392e-14)
(-51.9031 -125.403 1.18211e-14)
(126.173 -19.3207 -9.34523e-15)
(28.0767 73.2703 -3.39595e-15)
(307.512 73.3503 -4.52835e-16)
(448.028 -177.539 6.00831e-17)
(-53.3968 66.2338 0)
(-1.30459 1.16366 5.71263e-14)
(99.921 -107.05 7.345e-15)
(-79.7729 -30.0747 1.20404e-14)
(146.445 209.358 -3.56346e-15)
(52.9937 17.8979 -9.9384e-15)
(8.37285 -151.183 0)
(199.461 133.131 0)
(119.43 120.59 1.69528e-14)
(-114.269 -85.4288 0)
(-124.212 -32.6429 0)
(114.104 -94.3715 -5.69503e-14)
(14.069 -11.2094 0)
(-20.1813 1.30697 -5.76649e-14)
(27.5395 159.499 -2.21895e-14)
(107.455 -21.5762 0)
(-112.604 18.4922 0)
(-244.067 9.75971 3.6632e-14)
(-20.6918 8.69347 0)
(-115.502 -88.4154 -9.71318e-15)
(159.101 134.966 -1.15016e-14)
(28.979 0.903452 0)
(-9.0204 37.2591 3.44209e-14)
(28.8217 49.148 4.4854e-14)
(39.0254 13.9013 2.71433e-15)
(31.1445 -89.9546 -4.07292e-15)
(1.36504 29.7054 -3.48383e-14)
(224.42 -28.2446 3.2985e-15)
(-41.2802 -18.0187 -3.38914e-14)
(-107.238 -98.2117 1.79839e-14)
(239.526 105.688 0)
(152.218 79.5721 -4.38475e-15)
(-19.7591 -37.2158 7.65828e-15)
(-13.3077 -5.36511 2.92972e-14)
(-46.3288 166.567 9.95277e-15)
(-155.267 -127.509 0)
(38.7441 -36.9869 -1.34239e-14)
(121.228 195.268 3.4237e-15)
(196.237 -31.1175 2.58753e-15)
(204.332 148.457 0)
(80.6479 217.291 -2.04909e-15)
(219.254 -86.194 1.58612e-15)
(-57.14 -2.44992 -3.61812e-14)
(198.307 -92.1583 0)
(131.472 27.5029 -6.24711e-16)
(-118.186 -93.4036 4.5492e-15)
(-1.48745 94.9175 -2.29162e-15)
(224.764 13.1318 1.047e-14)
(96.9182 -8.99944 0)
(4.82553 -25.22 0)
(-32.9507 -57.9762 3.54438e-14)
(51.6574 -20.7721 -5.96308e-14)
(148.054 49.9293 -1.00964e-14)
(30.5555 29.7188 -5.48202e-14)
(-204.399 70.4338 0)
(-376.789 17.467 -2.0587e-14)
(-373.096 132.96 3.12452e-15)
(28.3729 34.4302 -1.76675e-14)
(-263.182 41.695 -1.31805e-14)
(155.616 140.113 0)
(-14.0812 12.2726 -9.23687e-14)
(11.7508 -102.389 0)
(-153.501 131.128 7.51083e-15)
(-325.977 9.20732 -9.41883e-15)
(44.286 132.905 -3.42226e-15)
(97.0934 -29.2102 1.95229e-14)
(89.8587 158.112 7.62851e-15)
(12.3111 166.719 5.5689e-14)
(-2.71358 -105.176 3.87692e-15)
(187.731 2.53537 1.98263e-15)
(245.328 -57.4038 -2.60301e-15)
(-143.773 -49.7906 1.2324e-14)
(50.4159 116.16 5.14639e-14)
(61.8592 -106.005 0)
(94.5086 -78.4652 -2.63745e-15)
(-17.9746 6.63619 -5.32324e-14)
(-130.403 -1.23546 -1.73593e-14)
(17.445 2.42736 -3.29315e-14)
(-7.77089 -18.6223 3.27856e-14)
(-313.23 123.797 -2.66585e-15)
(109.524 171.679 1.75395e-14)
(-25.5181 -15.6864 -3.43273e-14)
(8.62432 -0.247998 -4.31504e-16)
(10.9652 -10.2291 0)
(45.5273 -23.5063 -2.16036e-14)
(2.20557 -33.2544 0)
(6.60946 -97.9595 0)
(13.6835 -68.9811 7.79503e-15)
(3.69821 54.0025 0)
(-27.7263 107.926 -2.17071e-14)
(119.183 121.295 3.41566e-15)
(4.50043 -151.126 6.17786e-16)
(-16.8195 46.429 -3.5552e-15)
(156.267 136.542 6.76204e-14)
(-162.935 31.447 2.70676e-14)
(-95.2524 -5.79717 4.66598e-14)
(-39.1903 -151.015 1.79839e-15)
(230.798 86.1749 8.25982e-15)
(-131.306 46.1768 1.88967e-14)
(-190.85 -94.3676 0)
(29.404 9.26416 0)
(-10.2128 -72.1157 2.52903e-14)
(-167.984 -48.4608 -5.67228e-15)
(-68.2921 -103.372 3.6649e-15)
(-61.3772 12.745 3.45133e-16)
(-66.3245 120.447 -2.22861e-15)
(117.674 -40.1047 1.34649e-15)
(-265.158 22.7177 -5.98645e-16)
(147.37 -25.5604 0)
(249.252 -12.2427 0)
(-148.49 81.8983 -1.81756e-15)
(-299.342 213.119 1.45562e-14)
(74.9549 -145.586 1.23403e-15)
(-273.204 -79.4949 -8.96543e-16)
(62.9668 46.3002 -7.41284e-16)
(220.357 -36.3991 1.96369e-14)
(64.0697 -30.3524 4.41272e-14)
(-57.0968 222.185 0)
(-4.30164 -12.5198 -8.07084e-15)
(-20.9314 -101.18 3.01505e-14)
(-28.3412 62.8596 -3.5509e-14)
(15.9026 39.0657 2.74707e-14)
(212.9 21.9748 5.18261e-15)
(-158.996 -20.949 -3.53885e-14)
(-40.0375 11.7405 8.97137e-14)
(-27.6569 67.7102 2.91622e-14)
(-443.209 -4.88398 -2.94087e-17)
(-55.5011 -6.3801 0)
(3.34515 71.7128 3.00378e-16)
(-24.4281 -107.244 0)
(149.134 -31.015 0)
(226.251 -49.1049 0)
(11.3685 57.8321 0)
(-235.612 -84.825 0)
(150.342 52.2735 -2.45428e-14)
(157.24 55.1438 5.73062e-14)
(7.46189 -8.27209 0)
(34.6912 1.0929 3.35954e-14)
(156.565 -17.1766 0)
(137.296 19.6291 -1.29607e-14)
(-131.814 59.1196 -1.41339e-16)
(105.42 6.92704 -3.01033e-14)
(-15.9843 6.59914 1.94971e-14)
(-22.213 -134.612 4.87178e-15)
(116.097 74.9191 -7.81498e-15)
(104.019 79.0083 0)
(-128.895 -10.7522 -3.75172e-15)
(9.68068 14.0544 4.29272e-15)
(-18.3172 117.279 0)
(3.0791 11.149 0)
(25.688 -6.88168 7.3654e-15)
(178.073 118.733 0)
(-0.291145 149.013 0)
(-113.009 -139.488 -1.1703e-14)
(11.8074 -48.5723 -3.07277e-14)
(75.7231 -70.8754 -2.88146e-14)
(52.6782 56.385 -7.34677e-15)
(92.4553 -23.8297 -6.13445e-14)
(112.488 8.62548 0)
(78.4125 -26.2947 0)
(110.82 -153.332 0)
(288.021 152.003 1.24743e-14)
(61.3517 -29.4173 -3.10929e-14)
(82.4601 -19.8498 6.00742e-14)
(-100.411 115.019 -4.31865e-15)
(120.299 -31.5857 5.81264e-15)
(64.6256 -65.71 4.17413e-15)
(-217.767 -49.6172 2.3385e-14)
(-477.252 12.5396 0)
(64.6103 -33.0271 4.87252e-14)
(86.1636 73.5283 -4.39222e-15)
(14.4182 -56.4043 6.57368e-14)
(-115.918 -9.90195 -1.06775e-14)
(-85.9832 72.7046 0)
(60.0759 59.3635 -1.35844e-13)
(0.069073 10.0745 1.67071e-14)
(137.888 152.25 2.62192e-15)
(-231.796 37.2072 -2.22064e-14)
(-62.8118 39.8885 5.32311e-14)
(-14.6811 66.4032 7.52423e-15)
(134.812 24.2983 -3.14439e-14)
(132.038 24.5235 -1.88493e-14)
(1.89392 -4.78118 -3.51368e-14)
(110.292 23.2643 -4.44687e-16)
(116.143 -97.1818 3.09151e-16)
(182.333 81.1937 -1.36499e-14)
(180.986 -3.7028 -4.37619e-15)
(80.3529 237.068 -1.8047e-14)
(-17.7214 -90.7049 7.24919e-15)
(49.6632 36.2371 0)
(83.263 -88.8202 -3.31054e-14)
(11.4015 93.9265 -3.80425e-14)
(-24.92 -164.387 -9.97824e-15)
(123.67 -161.288 0)
(122.024 123.669 8.74563e-16)
(21.9033 -82.8587 0)
(-54.5502 -6.4159 -2.14568e-14)
(13.7397 -18.0574 0)
(465.171 94.6399 -1.07817e-14)
(105.846 85.4728 1.49806e-15)
(-240.813 19.6975 2.35178e-14)
(10.7477 -6.56064 1.84462e-14)
(-111.869 226.732 1.52997e-14)
(-22.6477 -28.1427 0)
(-13.603 22.5089 1.38461e-14)
(-166.651 287.477 -7.48608e-15)
(263.111 25.0778 6.95088e-16)
(370.881 -89.4583 -5.27241e-16)
(70.8692 20.8234 0)
(-329.912 89.6539 -2.01803e-14)
(-21.9199 45.53 -6.47735e-15)
(143.807 8.50805 -2.7791e-14)
(222.503 3.7617 3.12757e-15)
(-13.953 -16.1945 0)
(7.74951 113.326 5.27063e-14)
(107.028 53.235 -4.2855e-14)
(-82.8449 63.0822 -1.55149e-14)
(-195.872 236.298 0)
(-99.7178 34.891 -1.48164e-15)
(327.162 -462.578 0)
(283.394 373.86 0)
(245.33 56.5086 -5.74698e-15)
(57.3899 39.6783 7.794e-15)
(24.488 -14.849 -3.10977e-14)
(206.679 -72.6459 1.39848e-16)
(51.61 -19.9981 2.49305e-14)
(57.6881 -16.9605 -1.07323e-14)
(37.8883 -321.011 -2.84522e-14)
(55.4236 301.121 0)
(66.3559 65.7034 2.68817e-14)
(127.134 72.7512 9.44674e-15)
(21.7862 -0.184939 0)
(69.2782 212.037 9.34112e-15)
(156.256 -165.924 1.41809e-14)
(9.11639 81.8187 -7.27483e-15)
(40.5921 -127.143 0)
(91.354 91.4124 -8.38603e-16)
(-90.1191 -40.7708 6.37218e-15)
(178.914 70.0408 9.99503e-15)
(184.299 26.5614 8.44442e-16)
(283.52 -131.812 -5.87378e-16)
(-204.861 118.592 0)
(-160.951 -29.144 0)
(-74.5318 26.0836 1.41192e-14)
(96.9097 -15.7061 -5.61954e-14)
(14.3562 -83.0702 -1.38864e-14)
(192.611 142.723 1.38947e-14)
(159.056 130.59 -2.34634e-14)
(-123.419 -58.573 -5.75346e-14)
(-5.96026 42.9676 6.11162e-14)
(-140.388 -54.7185 0)
(-344.593 260.54 0)
(42.9072 -103.792 5.5104e-15)
(97.5237 6.25395 2.64571e-14)
(126.8 11.5357 4.76028e-15)
(-25.2496 85.5042 0)
(49.0591 18.7108 4.1071e-14)
(-5.40365 -2.22921 3.16168e-14)
(-230.998 141.229 0)
(38.6275 161.71 -5.56113e-14)
(209.077 53.1232 0)
(53.2173 101.1 0)
(-223.747 71.7904 -3.69891e-15)
(-91.1872 119.198 4.31012e-14)
(26.0088 107.069 0)
(-202.091 126.139 1.98777e-15)
(-139.742 -18.6956 1.527e-14)
(68.7864 43.8114 -1.91708e-14)
(-1.73688 -5.76891 0)
(-370.299 48.2141 8.0076e-17)
(-230.132 -120.829 -4.97674e-17)
(241.941 10.7792 2.39677e-15)
(180.458 32.7387 0)
(119.838 31.8412 -7.22538e-14)
(133.445 10.2526 -1.59678e-14)
(287.67 102.181 9.16756e-16)
(77.9702 156.284 2.29555e-14)
(-198.974 132.13 0)
(-20.835 -16.4249 6.01385e-14)
(135.816 -44.8958 2.9424e-14)
(-11.7514 123.6 -1.27844e-14)
(-24.0393 15.2614 1.0812e-16)
(142.293 105.643 -1.73933e-15)
(43.8254 -136.86 1.38032e-15)
(40.5429 -127.346 -3.82561e-15)
(-204.075 -5.57063 0)
(-117.214 -58.2211 3.19794e-14)
(-77.2845 -56.2304 1.37472e-14)
(-37.7304 -176.312 -5.11784e-15)
(32.9913 47.9356 0)
(40.0364 10.6407 -3.29922e-14)
(21.2278 -166.581 6.33471e-16)
(-13.8291 29.885 6.34009e-14)
(321.55 -61.7183 0)
(-23.3789 -10.4991 -6.93887e-14)
(-246.079 2.05002 0)
(-41.0162 -35.858 1.16973e-14)
(103.87 -163.487 0)
(-129.926 -111.237 -2.40483e-15)
(10.475 -30.0305 0)
(-206.624 -3.6858 0)
(67.1406 60.065 -3.06184e-14)
(-25.6371 48.7599 -6.10755e-14)
(87.561 36.8848 2.4463e-14)
(174.268 74.1517 -2.53707e-15)
(70.3372 -33.3196 -6.30681e-14)
(-280.367 -107.117 4.63166e-15)
(89.161 79.3667 6.35811e-15)
(-39.2442 88.5867 0)
(-52.1617 56.5664 3.33927e-14)
(105.574 -36.8008 4.19371e-14)
(-290.787 -115.307 -2.59557e-15)
(86.1425 -24.6947 0)
(8.55388 55.0018 -2.91773e-14)
(38.8267 46.4241 0)
(92.2639 151.385 0)
(-69.2829 66.68 0)
(27.7567 -259.158 -1.4085e-14)
(-17.6329 16.1632 -3.21739e-14)
(-15.7461 8.19691 1.97616e-15)
(92.5368 2.31506 -4.18043e-14)
(310.718 -37.0447 6.96925e-16)
(468.782 9.76646 -1.08129e-15)
(-322.983 166.436 4.59974e-15)
(-60.3515 290.532 -2.08807e-14)
(243.313 144.465 -3.27883e-14)
(-263.368 -97.989 0)
(-120.666 -140.106 2.70864e-15)
(45.4886 127.903 -2.41175e-15)
(164.575 -76.4021 -5.07318e-15)
(307.493 75.2976 3.57851e-16)
(-171.456 113.101 0)
(-317.878 -132.534 1.48943e-15)
(348.213 198.235 -1.514e-15)
(468.029 -279.92 5.93419e-16)
(-49.1807 -115.22 -1.4744e-14)
(-267.862 84.9182 -4.34685e-14)
(106.911 27.9257 4.914e-14)
(61.7578 -9.40097 0)
(53.0757 39.7401 3.33045e-14)
(-124.406 -70.7964 -2.40458e-15)
(53.3937 224.929 -5.34507e-14)
(-20.0318 113.742 1.0132e-14)
(-228.348 -109.936 0)
(111.164 -18.3512 0)
(180.599 -25.5477 0)
(52.6956 -62.395 0)
(122.394 87.6353 1.62434e-14)
(-156.345 -25.057 -2.28511e-15)
(-0.393061 4.13401 -3.47648e-14)
(-41.5505 -69.455 3.15336e-14)
(114.19 -17.6392 0)
(-12.1719 -98.3228 -2.64985e-14)
(-4.12446 -39.9968 7.8048e-15)
(-231.709 -14.9278 2.91415e-15)
(13.342 -81.4058 0)
(172.377 122.469 3.0905e-14)
(29.4787 57.3108 0)
(436.784 -34.2002 3.49157e-15)
(266.562 7.21462 -2.06609e-15)
(8.23032 89.0765 -1.22939e-15)
(2.88003 -107.323 7.27766e-16)
(-189.337 -56.4279 1.5464e-14)
(268.148 -230.967 1.21146e-14)
(219.525 169.691 -8.17399e-15)
(22.1907 -13.5037 3.58514e-14)
(-53.8034 -11.4932 0)
(-0.740182 -44.0215 -1.44906e-14)
(-30.9122 132.663 -2.41779e-14)
(225.655 217.64 2.18863e-14)
(22.4784 34.404 -2.03979e-14)
(27.0867 82.9022 -1.98419e-14)
(-123.98 30.6054 3.07373e-15)
(-61.4771 65.4502 0)
(146.556 26.0742 0)
(183.53 78.748 2.67616e-14)
(162.574 9.76976 1.11515e-16)
(-229.677 40.1737 3.39504e-14)
(-15.9784 13.9364 3.26913e-14)
(-38.4407 -39.9888 -6.21146e-14)
(52.4083 -71.281 -6.71753e-14)
(129.885 -40.7598 2.7701e-15)
(74.3281 -10.9154 0)
(-14.0333 10.9722 0)
(26.4094 -165.659 -1.78199e-15)
(124.903 33.6705 0)
(1.87341 2.07385 -9.58695e-17)
(128.915 62.4542 -4.12488e-16)
(447.187 -83.9608 -4.81721e-15)
(268.654 42.163 2.98182e-15)
(-149.119 -11.696 0)
(112.162 -141.717 0)
(88.6914 81.1492 0)
(101.724 -95.8388 0)
(-100.61 7.60225 0)
(105.551 -46.8954 -1.52699e-14)
(214.22 -267.633 3.7962e-15)
(180.916 169.227 -1.92445e-15)
(-239.713 -61.4416 -1.39233e-15)
(52.0962 19.7874 -2.72808e-14)
(11.2984 129.424 0)
(33.0967 122.179 5.00293e-14)
(50.8995 74.6944 2.49163e-14)
(51.7894 -448.126 -4.64246e-15)
(64.182 412.066 3.61213e-15)
(16.6873 -40.6068 0)
(-272.003 121.206 -7.26177e-16)
(71.3929 76.8792 3.22038e-14)
(34.2707 -76.4392 -2.89184e-14)
(421.517 -132.219 5.45656e-15)
(314.683 75.0001 -3.03882e-15)
(293.049 41.8638 3.07473e-15)
(381.212 -72.5035 -7.04008e-15)
(-199.183 3.31368 0)
(-28.6393 -164.318 0)
(-142.41 -70.6359 -1.56486e-14)
(79.2014 -82.1204 4.57772e-14)
(147.746 62.3833 -1.19668e-14)
(75.8456 -25.6928 2.15618e-14)
(118.92 51.5657 -4.10487e-15)
(25.1299 -171.361 9.13395e-15)
(-51.6125 12.5916 -6.37725e-14)
(-6.76611 -61.3077 0)
(213.463 -167.147 0)
(-22.6483 -44.2546 -4.10551e-17)
(-38.9339 -35.6934 -3.08921e-15)
(91.0529 -44.0839 0)
(32.6809 152.326 1.29363e-14)
(-99.5926 11.5829 1.07041e-14)
(-41.2005 0.756984 1.4413e-14)
(-35.1234 -37.1234 5.47511e-14)
(73.9029 141.047 2.62426e-14)
(6.19366 -283.107 -2.17446e-14)
(102.593 13.3409 0)
(-48.2972 17.3628 3.21479e-16)
(8.39959 -37.2992 1.61619e-15)
(112.905 -146.142 3.58472e-16)
(124.036 -138.697 5.21771e-15)
(261.495 -72.0843 -1.63977e-15)
(-149.854 -11.7513 0)
(78.7808 6.31881 -2.73162e-14)
(38.0002 -0.844763 0)
(-118.459 -202.298 -2.48414e-14)
(188.532 -97.994 0)
(-53.4581 14.8166 1.64837e-14)
(66.6489 2.39613 1.16084e-13)
(134.001 191.855 -2.95589e-14)
(-3.10586 88.4599 6.73593e-16)
(-157.458 65.1162 -3.34212e-15)
(17.239 11.4833 0)
(-26.2039 -15.0679 0)
(76.3039 -33.784 0)
(-293.559 -42.6468 -4.03507e-15)
(9.66473 170.876 0)
(-36.9013 -89.4699 0)
(-70.8905 59.6316 0)
(-17.1803 -120.226 0)
(130.259 14.2357 0)
(208.055 36.7132 0)
(-138.522 -6.21658 -3.81751e-14)
(58.2959 27.1307 0)
(-30.0238 -30.2922 0)
(-8.70165 172.887 0)
(-523.499 63.3288 6.02041e-16)
(48.853 -30.1539 0)
(28.8995 -26.4137 3.24842e-15)
(162.211 64.1646 -1.88065e-14)
(27.299 -18.6568 0)
(-85.1713 196.166 -2.08707e-14)
(-114.263 177.255 -4.48587e-14)
(-186.91 47.3039 -1.06672e-14)
(-74.4378 52.4003 -3.01024e-14)
(170.591 53.4319 0)
(120.882 -39.9878 6.35884e-14)
(40.1429 -20.0523 5.02194e-15)
(131.063 39.8267 -3.52491e-15)
(-321.397 30.6912 -2.03296e-14)
(-215.339 -65.5042 0)
(12.1806 -168.586 3.27858e-15)
(-92.1948 21.2713 -8.94087e-15)
(49.0586 31.1105 -2.93858e-14)
(109.851 69.9092 0)
(-210.561 75.1533 1.78484e-14)
(9.05521 -132.847 0)
(129.582 -4.18992 0)
(56.7754 -57.4008 2.42434e-14)
(-25.302 -102.925 0)
(55.7811 -100.765 3.2164e-14)
(133.008 203.554 0)
(50.589 -38.9555 -1.4129e-14)
(361.422 -148.807 0)
(278.111 101.565 0)
(-25.9178 71.6338 -2.14098e-14)
(109.569 -11.4861 -3.42244e-14)
(7.04145 -129.301 5.07583e-14)
(176.286 93.0373 -3.86391e-14)
(35.9488 -107.778 2.47362e-15)
(-13.6299 30.3606 0)
(-1.72219 -13.6053 0)
(73.1052 156.405 5.58555e-15)
(-65.7462 148.896 -5.73366e-15)
(99.9164 -61.9951 0)
(-2.77834 -13.1412 3.78528e-15)
(-144.068 -27.2429 -4.28917e-15)
(-34.1865 31.2332 -3.35639e-16)
(13.5712 20.7418 -7.72347e-15)
(-65.1257 -62.3477 -3.12248e-14)
(-1.38542 -42.0233 -5.94949e-14)
(22.0156 53.0001 -5.04673e-16)
(-5.6661 229.911 0)