/*--------------------------------*- C++ -*----------------------------------*\
  =========                 |
  \\      /  F ield         | OpenFOAM: The Open Source CFD Toolbox
   \\    /   O peration     | Website:  https://openfoam.org
    \\  /    A nd           | Version:  7
     \\/     M anipulation  |
\*---------------------------------------------------------------------------*/
FoamFile
{
    version     2.0;
    format      ascii;
    class       volScalarField;
    location    "0.15";
    object      p;
}
// * * * * * * * * * * * * * * * * * * * * * * * * * * * * * * * * * * * * * //

dimensions      [0 2 -2 0 0 0 0];

internalField   nonuniform List<scalar> 
2016
(
-256.151
-250.653
-95.8701
-93.7948
-202.829
-174.934
-28.3146
-98.4486
-221.269
-192.562
-189.37
-27.0268
-29.6286
-202.62
-208.735
-14.9969
-7.39742
-204.695
-33.3998
-9.28561
-222.112
-6.59523
-17.7688
-157.597
-165.357
-164.632
-96.4685
-84.9969
-207.841
-192.295
-217.77
-60.4947
-96.3926
-152.084
-156.026
-7.17743
0.682101
-179.446
-160.571
-69.6345
-27.4121
-9.18728
-199.764
-203.308
-248.237
-161.166
-111.107
-43.1275
-33.0479
-179.188
-70.6139
-76.2502
-17.0991
-7.91284
-158.483
-151.27
-16.8425
-106.686
-10.5602
-5.67868
-158.313
-167.129
-94.8666
-78.2643
-233.403
-169.777
-94.3726
-195.974
-231.028
-59.0512
-35.4657
-198.513
-62.7698
-39.9887
-150.128
-237.113
-234.596
-246.304
-249.606
-184.015
-116.441
-110.949
-48.8579
-259.617
-147.132
-99.0374
-76.6091
-86.2802
-120.807
-209.865
-249.555
-41.0995
-18.3514
-259.644
-226.123
-102.912
-128.424
-149.957
-155.202
-20.5204
-10.5969
-124.188
-242.744
-212.151
-4.07806
0.652688
-195.288
-155.784
-102.621
-15.6033
-41.8573
-245.471
-245.333
-102.887
-244.225
-212.748
-236.654
-246.282
-22.4395
-91.2744
-248.629
-248.993
-209.132
-141.727
-177.191
-164.232
-238.4
-217.533
-119.002
-157.847
-231.471
-34.0711
-45.6663
-20.8794
-167.682
-69.2522
-21.6868
-127.935
-113.162
-146.86
-11.5068
-4.92605
-200.723
-258.855
-236.617
-244.951
-75.5755
-62.9633
-61.8662
-163.822
-169.039
-158.106
-98.8969
-71.3505
-193.648
-234.013
-201.778
-103.482
-255.893
-236.761
-9.96817
-35.1472
-159.226
-216.893
-229.483
-236.368
-2.57155
-9.60181
-46.3607
-68.0108
-49.7118
-47.6992
-112.056
-210.928
-91.5401
-42.3308
-45.7471
-97.3485
-188.723
-154.047
-35.2741
-60.1107
-246.071
-249.634
-71.7621
-148.709
-253.395
-61.5785
1.68656
-3.22012
-138.311
-137.505
-232.036
-10.6912
-37.0216
-31.9095
-56.7951
-248.978
-206.005
-244.051
-237.104
-107.374
-148.661
-257.573
-50.1937
-203.307
-162.387
-56.6486
-201.845
-247.815
-241.46
-258.728
-55.594
-48.416
-160.242
-7.68783
-19.1361
-158.391
-116.727
-167.167
-165.764
-194.994
-221.709
-235.527
-244.51
-242.452
-45.8941
-9.81865
-1.67707
-251.656
-86.2303
-247.219
-238.673
-212.703
-193.778
-208.449
-32.4331
-23.297
-12.4324
-16.1977
-81.4517
-31.4082
-9.14402
-198.85
-38.0544
-30.3921
-20.8164
-233.761
-8.28986
-15.5665
-162.1
-145.778
-220.131
-225.154
0.958214
-7.05783
-84.3179
-4.74
-0.823246
-189.379
-195.466
-39.0587
-101.388
-5.95418
-230.076
-75.9899
-216.319
-214.056
-257.619
-250.741
-90.5902
-216.615
-223.356
-34.5056
-37.7292
-124.014
-93.7856
-198.485
-77.8733
-41.8841
-251.588
-258.074
-156.193
-98
-206.415
-37.0337
-107.732
-119.523
-215.191
-224.635
-233.744
-119.801
-234.076
-256.225
-254.131
-152.31
-151.695
-59.066
-57.4851
-100.299
-242.256
-115.914
-229.384
-73.6357
-250.386
-258.399
-238.91
-261.318
-92.1012
-213.689
-128.693
-259.537
-263.517
-194.528
2.33009
-5.38172
-207.63
-125.38
-134.229
-37.6374
-49.8901
-251.724
-108.144
-162.85
-205.965
-16.1322
-43.9564
-158.244
-225.454
-167.238
-239.232
-243.9
-239.052
-210.281
-154.145
-188.35
-215.717
-237.749
-14.0728
-236.209
-167.319
-251.506
-233.502
-214.128
-210.105
-232.018
-233.474
-95.814
-133.427
-145.919
-255.175
-47.6103
-26.284
-194.299
-248.559
-248.298
-215.198
-146.949
-148.277
-247.038
-15.4763
-3.11644
-215.762
-104.208
-200.653
-30.5937
-10.647
-33.8808
-253.336
-51.4552
-14.6504
-3.16524
-15.262
-8.7296
-43.2274
-176.457
-144.727
-247.542
-251.577
-159.582
-156.861
-235.924
-226.075
-245.158
-138.879
-230.097
-245.508
-240.475
-235.129
-238.964
-202.993
-239.186
-164.983
-227.035
-260.949
-23.6819
-44.225
-171.015
-222.424
-245.555
-211.264
-178.708
-15.4913
-119.123
-45.0279
-235.408
-214.052
-217.511
-257.074
-248.607
-169.433
-170.606
-216.497
-231.666
-204.376
-22.1395
-7.13584
-96.0171
-104.123
-230.705
-219.665
-242.506
-264.75
-174.81
-48.1039
-235.771
-158.728
-249.952
-258.558
-238.609
-64.8032
-37.9628
-201.178
-219.578
-170.594
-85.0768
-141.917
-234.334
-261.097
-65.3118
-55.5088
-262.789
-66.9276
-35.8458
-150.635
-66.8075
-137.182
-189.524
-119.103
-11.8291
-1.44652
-49.1337
-226.601
-219.91
-179.481
-156.155
-94.8509
-160.452
-73.6838
-64.6408
-198.429
-37.6841
-5.50634
-2.08556
-259.808
-201.041
3.78117
-3.65164
-231.886
-236.923
-198.163
-161.541
-257.639
-236.521
-6.42718
-255.892
-243.458
-155.006
-242.71
-5.10145
-17.5309
-244.3
-248.997
-248.325
-37.9264
-257.52
-219.107
-253.344
-235.773
-265.768
-243.132
-259.19
-255.583
-255.995
-248.213
-255.444
-94.8449
-6.6365
-11.2
-232.981
-113.186
-119.889
-81.7727
-178.066
-164.805
-247.41
-197.51
-109.264
-201.782
-202.82
-83.0175
-105.964
-230.534
-225.625
-31.2946
-9.55228
-189.084
-119.319
-21.609
-243.81
-239.199
-237.655
-103.398
-144.146
-230.876
0.566983
-4.8177
-131.991
-198.463
-7.57871
-25.5663
-114.958
-27.145
-27.4048
-154.668
-155.309
-125.328
-83.1204
-203.124
-249.42
-253.794
-221.086
-220.724
-239.997
-235.782
-159.079
-47.6666
-193.954
-261.214
-240.676
-214.541
-6.60512
-18.138
-237.396
-110.72
-168.072
-171.518
-19.3421
-36.4223
-99.7369
-253.794
-100.239
-34.7161
-205.326
-218.978
-6.97207
-115.896
-127.237
-12.2785
-181.827
-12.166
-0.745888
-38.9238
-20.3133
-177.54
-112.189
-244.206
-256.078
-233.376
-29.2963
-192.507
-137.273
-91.8206
-81.6214
-128.632
-232.118
-57.57
-253.764
-259.417
-149.203
-50.1428
-99.6531
-121.944
-93.5149
-221.568
-250.791
3.31187
-4.72524
-106.45
-183.684
-13.6942
-11.8063
-250.351
-163.059
-233.944
-261.799
-102.1
-112.02
-242.051
-187.813
-257.662
-159.869
-229.975
-224.89
-245.375
-147.395
-155.555
-9.43389
-23.5787
-141.197
-177.037
-237.982
-223.71
-49.4559
-82.6473
-114.734
-207.071
-244.228
-118.426
-32.1576
-241.197
-145.486
-152.551
-43.1443
-34.1891
-129.021
-133.742
-96.5243
-103.37
-15.2524
-4.17188
-172.775
-198.345
-181.138
-165.917
-250.27
-239.832
-180.264
-172.938
-83.9853
-102.413
-251.334
-243.528
-48.2226
-263.531
-23.3469
-51.4454
-3.1028
-9.2405
-106.114
-186.03
-217.374
-219.445
-237.981
-259.509
-44.5705
-23.2917
-61.2787
-248.004
-89.5344
-29.9498
-12.5272
-95.7175
-20.3314
-5.51821
-218.431
-240.672
-265.331
-134.465
-126.91
-196.89
-196.405
-245.798
-238.602
-252.775
-209.821
-219.023
-50.3373
-27.3015
-241.015
-241.474
-41.0717
-86.523
-62.9788
-192.733
-47.514
-251.125
-34.5731
-225.903
-159.267
-120.611
-203.937
-237.265
-21.8207
-204.613
-209.402
-110.143
-230.091
-74.4321
-251.949
3.86466
0.230021
-117.566
-23.7017
-66.4463
-121.744
-126.006
-234.237
-120.271
-47.7917
-31.0569
-7.76419
-202.132
-198.757
-235.775
-74.9978
-200.925
-217.834
-241.058
-41.0727
-233.601
-192.612
-91.0308
0.817423
-6.18791
-214.866
-99.4767
-47.3799
-193.76
-26.9601
-115.828
-193.218
-182.692
-137.585
-119.341
-30.4215
-30.9103
-7.79841
-158.577
-230.361
-250.371
-45.6956
-104.323
-149.708
-59.9873
-31.0025
-234.459
-83.2682
-204.731
-134.56
-43.309
-107.951
-33.3877
-9.47299
-150.909
-159.721
0.853983
-3.10249
-98.2134
-228.464
-191.384
-244.087
-50.0029
-28.9636
-158.847
-168.439
-180.399
-178.303
-148.175
-122.664
-181.863
-123.963
-188.422
-193.476
-233.064
-99.8645
-202.175
-114.111
-112.232
-67.866
-170.368
-192.389
-61.9407
-243.34
-152.904
-245.008
-6.93989
-2.69488
-117.979
-133.017
-246.51
-251.937
-22.8689
-38.5812
-152.016
-236.905
-228.023
-70.6904
-260.828
-0.236947
-11.5434
-21.9991
-206.749
-247.186
-252.954
-63.2905
-205.125
-241.611
-18.4255
-248.454
-111.889
-252.223
-147.157
-195.687
-34.3433
-24.1957
-210.648
-217.931
-241.618
-150.633
-157.849
-22.709
-248.533
-59.8878
-194.562
-201.386
-241.367
-193.562
-69.6707
-259.519
-233.277
-92.7767
-88.0311
-219.09
-118.874
-261.927
-258.024
-237.985
-2.55746
-9.13775
-169.87
-144.334
-127.875
-101.935
-34.9307
-16.9598
-66.4927
-69.5301
-21.8372
-40.8982
1.46158
-10.2095
-235.302
-212.293
-240.328
-101.479
-252.635
-36.0081
-207.941
-170.003
-158.458
-1.19344
-9.48238
-152.325
-137.526
-33.0325
-245.188
-231.947
-264.818
-223.997
-242.218
-122.467
-242.721
-240.815
-236.659
-16.4816
-8.05863
-13.2762
-4.75453
-128.38
-28.0374
-7.61864
-245.309
-239.128
-249.04
-217.351
-165.505
-167.049
-164.528
-167.879
-170.721
-213.691
-186.554
-183.923
-212.414
-252.058
-253.427
-173.33
-89.6388
-147.352
-7.35359
-3.73397
-234.58
-249.572
-55.6379
-10.7544
-4.17366
-226.231
-22.4478
-5.70217
-201.202
-185.535
-201.055
-18.0653
-2.32349
-192.437
-232.657
-230.456
-209.253
-208.552
-67.0275
-35.001
-18.9614
-122.61
-194.757
-161.219
-17.5671
-3.53262
-3.37011
-19.2295
-221.855
-47.458
-250.927
-232.891
-163.615
-66.3937
-35.973
-88.9678
-205.644
-246.751
-93.633
-249.531
-112.878
-223.06
-105.729
-170.636
-244.358
-151.252
-175.745
-126.81
-206.256
-237.367
-22.869
-18.1784
-9.23025
-14.1796
-234.043
-206.706
-244.144
-87.4922
-21.6229
-168.132
-195.73
-215.708
-18.4206
-138.744
-85.7032
-257.737
-224.441
-157.522
-157.148
-131.023
-165.137
-18.1637
-217.955
-56.0004
-180.577
-246.695
-255.383
-181.828
-7.61237
-247.097
-27.5329
-122.019
-14.9041
-169.942
-160.687
-100.791
-247.608
-9.7114
-245.72
-243.292
-177.312
-198.979
-203.765
-101.898
-135.801
-199.258
-170.011
-218.909
-10.2256
-1.31282
-250.026
-236.57
-239.882
-7.31785
-228.737
-13.1639
0.385599
-49.3106
-261.728
-207.511
-213.568
-34.9446
-75.8718
-216.076
-75.2285
-85.1408
-220.296
-7.98002
-21.5659
-216.376
-28.1203
-241.97
-227.821
-188.381
-170.572
-202.034
-125.88
-249.609
-149.027
-243.047
-108.155
-234.235
-176.934
-58.3024
-210.109
-36.722
-233.908
-57.5621
-54.1039
-24.305
-230.877
-255.314
-239.741
-146.791
-146.604
-243.06
-172.643
-122.641
-150.168
-167.263
-248.512
-90.6737
-201.916
-163.846
-227
-245.283
-236.875
-149.777
-132.237
-36.5371
-13.2411
-225.15
-30.8462
-9.69799
-158.402
-228.632
-231.352
-3.05861
-7.59768
-167.905
-71.375
-172.212
-254.763
-187.385
-123.459
-5.87723
-28.8304
-180.723
-158.939
-232.305
-204.827
-169.53
-218.036
-100.927
-99.7175
-233.454
-199.738
-20.2391
-6.83802
-108.133
-117.291
-243.048
-139.813
-196.179
-115.9
-211.661
-223.48
-103.528
-187.622
-100.107
-241.438
-190.247
-44.5617
-11.3027
0.503137
-145.025
-244.763
-157.59
-236.181
-92.4326
-11.7869
-12.0681
-226.683
-158.004
-29.4791
6.96052
8.33186
-198.662
-3.66281
-203.834
-258.015
-39.844
-33.288
-58.2378
-166.363
-76.4029
-118.743
-109.359
-214.24
-191.504
-241.287
-198.681
-203.266
-199.477
-236.401
-64.0131
-66.1258
-208.791
-166.184
-92.818
-9.25142
-22.1812
-8.36597
-98.3568
-66.7727
-247.699
-170.617
-65.0136
-246.425
-43.8107
-197.8
-10.7108
-3.57671
-15.8072
-160.647
-173.513
-11.1501
-238.18
-175.548
-185.361
-210.08
-217.336
-61.8366
-214.21
-63.6665
-251.508
-44.6304
-209.181
-211.432
-146.095
-4.41765
-16.3312
-140.863
-122.944
-106.491
-252.837
-81.3151
-128.819
-30.2068
-60.7603
-27.6141
-59.8781
-226.504
-93.6195
-174.644
-233.897
-237.361
-232.135
-159.097
-133.504
-131.012
-181.913
-178.649
-8.82166
-29.8634
-232.863
-65.1837
-32.8536
-21.6236
-19.7573
-4.97576
-225.706
-14.9621
-107.624
-252.209
-203.079
-166.522
-189.648
-249.675
-249.078
-121.666
-138.436
-247.041
-11.6536
-27.3052
-256.554
-170.744
-10.4715
-25.0231
-211.649
-212.722
-254.464
-248.492
-1.95936
-19.5581
-40.7205
-98.0956
-145.047
-148.36
-214.421
-239.466
-257.013
-205.987
-244.155
-236.687
-233.649
-195.165
-207.942
-56.5745
-231.459
-64.9769
-236.506
-30.5349
-225.607
-163.091
-57.9768
-29.6298
-153.836
-82.8048
-69.7068
-12.513
-5.67688
-159.247
-7.5011
-12.1457
-242.905
-253.529
-74.5703
-6.23049
-69.1059
-250.591
-69.5164
-252.632
-247.949
-133.771
-93.1568
-8.31484
-2.36697
-213.654
-28.6622
-7.96428
-185.284
-193.057
-57.4563
-114.884
-124.982
-245.702
-235.923
-245.073
-133.135
-159.385
-216.955
-12.3622
-1.26406
-158.615
-253.132
-255.784
-227.671
-162.831
-42.779
-51.4795
-60.1286
-56.5971
-57.4147
-256.376
-134.543
-139.957
-112.474
-155.643
-155.505
-171.215
-187.146
-183.154
-117.308
-229.691
-202.598
-181.015
-9.07324
-3.33659
-157.551
-20.2172
-5.11791
-189.605
-152.501
-244.45
-225.188
-242.673
-249.026
-38.06
-38.4585
-62.639
-33.6539
-185.166
-135.279
-167.651
-231.762
-241.965
-63.7454
-202.05
-153.282
-76.1675
-83.6561
-8.14323
-2.34743
-107.049
-153.545
-234.131
-220.444
-117.26
-259.404
-64.0313
-88.5169
-180.635
-170.431
-53.2442
-44.2308
-33.5154
-194.559
-16.0142
-3.33477
-228.981
-108.462
-167.124
-166.221
-140.143
-133.114
-37.1925
-165.925
-166.989
-44.5561
-172.332
-11.7736
-3.63501
-138.013
-233.238
-181.692
-216.334
-241.778
-171.974
-243.775
-214.026
-9.02819
-13.2229
-120.904
-225.186
-169.676
-6.49924
-25.8576
-138.456
-152.647
-20.815
-228.154
-19.4339
-44.4626
-104.32
-252.471
-238.6
-16.0173
-41.0102
-238.544
-229.757
-10.8703
-180.609
-121.787
-143.017
-241.055
-178.191
-104.034
-99.6662
-237.887
-35.2267
-80.7597
-185.412
-206.82
-178.326
-232.91
-255.312
-216.705
-198.447
-11.2036
-27.8101
-8.18353
-12.1877
-184.475
-55.8957
-238.376
-197.881
-228.785
-52.2742
-133.769
-66.6319
-263.785
-230.853
-208.068
-148.52
-64.6567
-116.767
-231.108
-220.028
-113.93
-13.0815
-7.32679
-178.915
-174.83
-233.521
-158.47
-8.09375
-4.74976
-212.626
-150.43
-75.4427
-38.3145
-150.136
-22.0614
-242.462
-240.941
-232.042
-9.71413
-21.5086
-63.3323
-31.8911
-27.2185
-5.59485
-125.056
-219.175
-6.45446
-22.1692
-147.453
-216.791
-221.267
-233.707
-244.305
-35.9442
-17.19
-5.94748
-21.9375
-22.0202
-6.87628
-13.0347
-1.9937
-12.5625
-5.21212
-16.4734
-5.86709
-231.978
-220.813
-128.385
-93.8429
-25.5691
-197.669
-236.933
-232.707
-255.94
-256.112
-100.217
-94.267
-25.8526
-133.439
-23.3092
-5.63597
-252.987
-255.346
-15.8835
0.370211
-57.2704
-23.8214
-9.45474
-96.4621
-37.5093
-21.0047
-6.96433
-24.0876
-25.5343
-7.92413
-176.85
-192.377
-32.122
-37.5572
-19.0776
-219.161
-182.26
-23.2316
-196.261
-151.861
-225.143
-13.0725
-2.34904
-25.1205
4.11763
7.73595
-206.747
-161.069
-48.2345
-209.064
-223.379
-65.1473
-37.8439
-206.841
-159.531
-161.669
-28.9303
-207.237
-238.071
-239.711
-229.05
-228.91
-211.904
-222.386
-130.849
-8.42493
-1.27708
-194.246
-172.841
-264.826
-236.019
-208.428
-233.05
-105.63
-65.739
-146.332
-44.5268
-138.158
-156.526
-256.253
-190.62
-43.3657
-201.878
-259.862
-258.026
-241.758
-238.48
-246.629
-133.233
-74.9945
-96.7655
-258.474
-228.398
-9.30415
-4.11895
-13.5497
-6.74601
-158.925
-141.112
-239.174
-6.96184
-10.7453
-212.599
-217.053
-223.786
-188.87
-10.6104
-5.55467
-110.541
-36.4158
-132.015
-263.76
-237.429
-193.351
-250.084
-41.5342
-225.664
-235.048
-254.715
-62.5869
-177.74
-59.3757
-107.562
-231.101
-263.829
-265.12
-233.05
-66.7222
-91.1328
-184.66
-168.329
-14.4754
-41.9765
-251.833
-180.472
-84.7028
-212.359
-22.6366
-16.8526
-45.2192
-52.497
-45.289
-37.2929
-109.767
-28.6833
-91.1419
-206.25
-70.9599
-39.7768
-50.5112
4.39532
-259.816
-247.206
-196.056
-262.965
-32.3228
-96.2452
-10.0694
0.372651
-250.834
-258.106
-15.1431
-169.273
-176.106
-118.911
-121.437
-242.125
-244.293
-215.428
-26.4517
-53.9634
-31.6361
-245.432
-43.4889
-101.335
-225.086
-248.129
-68.9121
-63.1537
-226.453
-254.351
-222.804
-258.427
-251.254
-216.643
-212.717
-206.126
-213.037
-175.409
-64.6864
-66.5495
-42.9829
-124.652
-209.248
-253.802
-68.2283
-63.2239
-247.027
-234.293
-64.5749
-63.7853
-226.84
-207.158
-79.1943
-211.746
-4.72432
-15.6979
-215.413
-223.87
-249.997
-257.956
-140.094
-189.662
-59.7459
-21.8125
9.81368
5.0102
-219.5
-34.3752
-62.3921
-9.41281
-3.65877
-177.94
-0.793969
-16.5161
-33.7729
-24.873
-68.7185
-229.09
-112.008
-206.09
-20.9355
-248.993
-32.7798
-215.971
-199.402
-222.148
-235.001
-182.475
-176.11
-209.246
-224.852
-214.882
-141.409
-223.708
-47.7118
-18.4868
-205.188
-106.32
-75.4595
-236.778
-219.393
-125.076
-56.4756
-254.057
-4.64279
-8.73335
-11.2489
-245.049
-247.192
-67.1752
-209.614
-57.7018
-244.656
-245.937
-49.2716
-52.7769
-70.8827
-217.622
-113.656
-95.6456
-236.534
-160.234
-145.955
-45.5196
-134.256
-238.592
-11.8245
-4.25477
-216.016
-143.294
-223.61
-55.2795
-58.3111
-13.595
-41.4494
-22.4635
-69.2759
-24.2057
-54.8037
-108.094
-43.8973
-85.4003
-53.4561
-105.872
-227.121
-240.908
-248.945
-238.772
-230.878
-14.7154
-197.013
-119.92
-226.258
-248.8
-248.243
-198.119
-40.5064
-232.698
-149.966
-161.237
-37.8675
-28.0955
-157.45
-132.542
-242.124
-232.55
-231.698
-208.938
-10.2893
-0.364145
-49.4566
-207.13
-219.866
-89.0117
-116.32
-11.868
-17.0276
-37.0426
-220.251
-1.14618
-16.9924
-34.085
-33.5984
-18.2613
-14.9001
-259.185
-233.86
-209.765
-228.784
-7.80127
-33.1757
-111.55
-32.8436
-8.04516
-53.1018
-69.3919
-234.045
-249.472
-203.702
-75.0913
-233.91
-232.895
1.77063
-4.83049
-191.46
-192.772
-243.511
-230.474
-231.531
-45.1564
-193.373
-141.428
-70.4409
-45.6577
-226.651
-226.847
-167.761
-157.237
-18.8495
-24.9401
-192.416
-205.292
-245.322
-243.022
-28.9642
-34.9579
-255.796
-216.25
-168.918
-190.107
-15.8988
-135.646
-229.353
-230.66
-51.1393
-234.834
-239.488
-221.807
-221.856
-217.676
-48.7893
-50.3085
-246.126
-38.0155
-239.764
-226.708
-46.7947
-56.4937
-127.461
-170.96
-151.802
-181.669
-230.531
-34.6877
-188.9
-238.69
-160.178
-226.365
-179.071
-196.817
-71.7546
-60.2632
-162.461
-171.11
-214.452
-16.4306
-5.92354
-237.141
-71.1189
-172.323
-60.1593
-89.1865
-97.8603
-236.283
-192.123
-191.812
-231.175
-135.846
-10.5937
-9.32462
-112.957
-66.1143
-60.2841
-129.793
-241.519
-251.253
-20.7713
-49.7163
-212.987
-247.212
-236.015
-250.219
-243.146
-66.6213
-208.856
-132.286
-237.664
-97.6133
-221.018
-180.056
-172.955
-206.994
-213.799
-12.2083
-73.9195
-67.8347
-205.274
-215.721
-64.2294
-65.9084
-46.3563
-17.4309
-2.56337
-232.388
-232.166
-19.0143
-25.9405
-11.847
-4.64317
-173.665
-147.802
-236.426
-228.453
-253.793
-233.945
-221.595
-214.375
-205.765
-74.1558
-70.85
-174.066
-249.05
-47.3363
-56.3611
-46.7869
-116.554
-101.557
-83.831
-12.3695
-196.99
-189.591
-254.348
-53.7035
-27.6235
-8.18553
-86.9394
-93.4637
-34.1932
-36.3191
-82.5615
-94.6978
-30.0803
-221.143
-213.696
-86.1348
-103.145
-88.9008
-224.757
-73.1676
-89.893
-67.9681
-66.0127
-62.1533
-34.5423
-55.9318
-81.2884
-238.828
-223.562
-76.3781
-82.135
-232.356
-221.83
-175.465
-226.982
-215.559
-196.211
-167.628
-210.404
-211.539
)
;

boundaryField
{
    frontandback
    {
        type            empty;
    }
    simetry
    {
        type            symmetry;
    }
    inlet
    {
        type            zeroGradient;
    }
    outlet
    {
        type            fixedValue;
        value           uniform 0;
    }
}


// ************************************************************************* //
