/*--------------------------------*- C++ -*----------------------------------*\
  =========                 |
  \\      /  F ield         | OpenFOAM: The Open Source CFD Toolbox
   \\    /   O peration     | Website:  https://openfoam.org
    \\  /    A nd           | Version:  7
     \\/     M anipulation  |
\*---------------------------------------------------------------------------*/
FoamFile
{
    version     2.0;
    format      ascii;
    class       surfaceScalarField;
    location    "0.15";
    object      phi;
}
// * * * * * * * * * * * * * * * * * * * * * * * * * * * * * * * * * * * * * //

dimensions      [0 3 -1 0 0 0 0];

internalField   nonuniform List<scalar> 
2956
(
-1.20737e-06
2.29202e-07
9.78167e-07
-1.01252e-06
5.67089e-07
4.45431e-07
-2.72154e-06
2.84719e-06
-1.25645e-07
-9.14453e-07
-1.80709e-06
-6.9612e-07
4.98142e-07
1.97978e-07
-1.23953e-06
1.18001e-06
5.95251e-08
2.80569e-06
-9.76169e-07
-1.82952e-06
-6.48049e-06
2.46274e-06
4.01775e-06
7.3512e-07
-1.61759e-06
8.82468e-07
6.75027e-07
2.19309e-07
-8.94336e-07
-8.02614e-07
1.07609e-06
-2.73477e-07
-2.79954e-07
1.20193e-07
1.59761e-07
3.28523e-07
-6.08476e-07
3.25221e-06
-2.90591e-07
-2.96162e-06
2.6385e-06
6.13708e-07
2.65847e-06
4.89785e-07
1.74579e-06
3.08019e-07
2.55762e-06
-1.01712e-06
-1.5405e-06
-3.56355e-06
3.73114e-06
-1.67587e-07
-2.66272e-06
3.02603e-06
-3.63317e-07
6.67687e-08
4.84521e-07
-5.5129e-07
-6.06981e-07
-6.13287e-07
1.22027e-06
-1.31244e-06
3.3995e-07
9.72493e-07
5.92745e-07
8.93379e-07
-1.48612e-06
-9.70938e-07
1.56368e-06
5.93878e-07
-1.83341e-06
-8.09874e-07
-9.75162e-07
1.78504e-06
3.06255e-07
-1.11613e-06
7.67977e-07
1.87053e-06
-3.54977e-06
2.55334e-06
9.96427e-07
-2.78179e-06
-2.7218e-07
5.32242e-07
-2.60062e-07
-3.36484e-06
7.49887e-07
2.61496e-06
8.28174e-07
-1.57546e-06
7.4729e-07
1.42773e-06
-5.99551e-07
-2.2187e-06
2.41437e-06
-1.95671e-07
-8.18782e-07
1.72621e-06
-9.07428e-07
-2.5419e-06
6.95041e-07
1.84686e-06
9.57958e-07
-3.49986e-06
-4.03554e-07
7.0981e-07
2.63587e-06
-6.10592e-07
-2.02528e-06
1.76363e-06
-1.08014e-07
-1.65561e-06
-1.93355e-08
-2.64206e-07
2.83541e-07
1.86207e-06
6.9555e-07
1.12638e-06
-4.68071e-07
-6.58314e-07
1.40444e-06
-5.46301e-07
-8.58142e-07
-4.30118e-06
3.21312e-06
1.08806e-06
-7.92313e-07
2.70657e-07
5.21656e-07
-8.90678e-07
9.83656e-08
1.17157e-06
-1.86768e-06
1.57167e-07
1.13491e-07
-2.46386e-07
-5.89358e-07
3.24783e-06
-3.91585e-07
2.13737e-06
3.19648e-07
8.60359e-07
-6.48049e-06
1.57483e-06
1.23086e-06
2.11728e-06
5.52719e-06
-7.64447e-06
-2.07275e-07
9.07466e-07
-2.14704e-06
2.34988e-06
-1.89493e-06
-5.50718e-07
2.44564e-06
-4.9184e-07
1.89629e-06
-4.04391e-06
6.7907e-07
1.85249e-07
-4.22916e-06
-2.00234e-06
1.57229e-06
4.30043e-07
-1.08236e-06
5.90519e-07
2.86717e-06
-7.59694e-09
5.05739e-07
-1.0371e-07
1.70482e-07
4.69573e-06
-2.59247e-06
-2.10326e-06
3.91054e-06
-2.37324e-06
-1.5373e-06
-1.19478e-06
7.86463e-07
4.08314e-07
2.97557e-06
1.72016e-06
3.12595e-06
7.84588e-07
-1.36812e-06
-5.26801e-07
-1.63946e-06
4.79936e-07
1.15953e-06
-2.06925e-06
4.2979e-07
2.66944e-07
-7.86341e-07
5.19397e-07
-1.09996e-06
1.36691e-06
3.29248e-07
4.35118e-07
-7.64366e-07
2.58547e-06
-1.30071e-06
-1.28476e-06
-1.87991e-06
2.57044e-06
-6.90525e-07
9.19408e-07
-2.29206e-07
-6.90202e-07
3.60517e-08
1.82851e-07
-2.18903e-07
1.26982e-06
-6.61947e-07
-6.07875e-07
1.82327e-06
-2.44895e-06
6.25687e-07
-6.43579e-06
3.41264e-06
3.02315e-06
4.80649e-08
-1.92798e-06
3.75468e-06
-1.48261e-06
-2.27207e-06
-7.49832e-07
1.42486e-06
3.40043e-07
8.10461e-07
1.82541e-06
2.21315e-07
1.54231e-06
1.28454e-06
1.87405e-08
-1.30328e-06
1.91885e-06
-1.18373e-06
3.43659e-06
-1.61333e-06
9.81882e-07
2.7728e-06
9.86156e-07
-7.5007e-07
-2.36086e-07
5.50736e-07
-1.09703e-06
4.88583e-07
-1.60061e-07
-1.67352e-07
6.55935e-07
3.59625e-08
-6.18933e-07
5.8297e-07
1.19707e-06
-1.25579e-06
5.87143e-08
1.36816e-06
-1.60027e-06
2.32109e-07
1.39435e-07
5.06482e-07
-9.0989e-07
1.07272e-07
-2.31834e-06
1.76762e-06
1.27637e-06
-2.40462e-06
1.12825e-06
3.83517e-09
-2.66655e-06
-1.6004e-07
-3.40351e-06
-1.10296e-06
6.98307e-10
1.10226e-06
3.40264e-07
-1.44322e-06
-8.84994e-07
2.16137e-06
5.96843e-07
-7.24465e-07
1.27622e-07
-2.11554e-07
-6.10061e-07
8.21615e-07
6.87357e-07
3.06932e-07
-9.94289e-07
-4.35945e-07
4.36645e-07
-1.93804e-06
2.01684e-07
1.73636e-06
-7.24885e-07
-5.71091e-06
-2.8966e-07
-1.46284e-07
1.57541e-07
-6.21458e-08
-9.53954e-08
-3.20613e-06
2.91554e-06
-1.92049e-06
-3.97848e-07
2.82228e-06
-5.20556e-07
-2.30172e-06
1.88093e-06
9.41345e-07
-1.04785e-06
3.43282e-06
-2.38497e-06
1.99527e-06
-3.04313e-06
1.67101e-06
-6.52513e-07
-1.1003e-07
7.62542e-07
-3.89196e-07
2.18847e-07
1.70349e-07
2.35535e-07
-2.01141e-06
1.77587e-06
-9.76031e-07
-9.89084e-07
1.96512e-06
2.85295e-07
-1.17597e-06
3.75917e-06
-2.80121e-06
2.3852e-06
3.04614e-07
-2.68981e-06
-1.60178e-06
-3.3626e-07
-1.44185e-06
8.12572e-07
6.29274e-07
-9.88484e-08
-1.343e-06
-2.49881e-07
-1.11824e-06
4.08918e-07
6.1989e-07
-1.02881e-06
5.22403e-07
1.07046e-06
-1.59286e-06
-1.34152e-06
-3.87761e-07
1.72928e-06
-3.47403e-07
8.8878e-07
-5.41377e-07
1.28549e-06
-8.84138e-08
5.03188e-07
-1.08541e-06
5.82225e-07
-9.65111e-07
1.65948e-06
-6.94368e-07
8.09778e-07
-1.08196e-06
2.46666e-06
-4.34411e-09
-2.46232e-06
1.22358e-06
-1.97683e-06
7.53248e-07
-6.65242e-07
1.393e-06
-7.27754e-07
-3.41638e-06
1.94119e-06
1.47518e-06
5.70635e-06
-5.5211e-06
2.3388e-07
-1.19899e-06
1.72157e-06
-1.39232e-06
-1.11673e-06
-9.52522e-07
1.96219e-06
-7.93592e-08
-2.68044e-07
6.87359e-07
2.21962e-06
8.0641e-07
2.8572e-06
8.73948e-07
3.34452e-07
-2.20046e-06
1.866e-06
-9.09642e-08
7.16314e-08
-2.24805e-06
1.19185e-06
1.0562e-06
-8.85841e-08
-2.15946e-06
2.24925e-06
-2.24925e-06
3.43905e-06
-3.43905e-06
2.94668e-06
-9.31327e-07
-2.01536e-06
-3.22e-06
-3.16945e-07
3.53694e-06
-5.66216e-08
7.40986e-07
-7.97608e-07
8.95913e-07
-1.37345e-06
4.7754e-07
4.86839e-07
1.74303e-07
-6.61142e-07
8.76074e-06
-7.75717e-07
-7.98502e-06
6.28608e-07
-1.0132e-07
-5.27288e-07
6.50205e-08
5.63588e-07
1.46961e-07
-1.94287e-06
1.79591e-06
3.58489e-06
-3.58489e-06
-3.45797e-06
4.13407e-07
3.04456e-06
-2.85745e-06
2.09805e-06
7.59397e-07
-3.63298e-06
3.08908e-06
5.43907e-07
1.00907e-06
-1.91696e-07
-8.17378e-07
4.82995e-07
5.26081e-07
2.7909e-06
-4.05704e-07
2.4934e-06
-7.19956e-07
6.16704e-09
7.13789e-07
1.6762e-06
-1.56271e-06
-1.07038e-08
2.25996e-06
9.3368e-09
3.42971e-06
-1.47594e-06
-3.77918e-07
1.85386e-06
-5.82563e-07
-6.97675e-07
-9.62959e-08
7.93971e-07
1.18806e-06
1.2504e-06
-2.43846e-06
1.14036e-06
1.92601e-06
-3.06637e-06
-1.96513e-06
-8.92312e-07
-2.08591e-06
-1.54707e-06
8.11187e-07
-2.14344e-07
-6.83033e-09
4.9367e-07
-8.96821e-07
1.06576e-06
-1.68943e-07
-6.87361e-07
-1.51334e-07
8.38694e-07
-5.02606e-06
9.32715e-07
5.34442e-08
1.93594e-07
8.99106e-07
-1.12831e-06
-3.96574e-07
-7.63704e-07
1.16028e-06
6.4598e-08
1.46915e-06
-1.53375e-06
-2.57283e-06
-6.47169e-07
-2.48244e-06
-4.79171e-07
1.62481e-06
-2.00234e-06
7.13396e-07
-1.04568e-06
3.32279e-07
-1.49294e-06
6.19109e-07
8.73826e-07
-1.40431e-06
-8.86282e-08
1.05749e-06
-9.92887e-07
-1.03065e-06
4.2367e-07
-7.46112e-07
-5.6633e-07
1.2548e-06
-9.35147e-07
-7.01909e-07
1.69481e-07
5.32428e-07
3.01589e-07
-1.42302e-06
1.12143e-06
-3.42798e-07
6.44387e-07
-2.04733e-06
-1.32674e-06
3.09616e-07
6.35639e-07
-1.08156e-06
4.45924e-07
3.22649e-07
-1.21947e-06
-7.39712e-07
4.20333e-08
2.62974e-06
4.55797e-07
-4.6879e-08
9.4093e-07
-4.18526e-07
-6.07024e-07
1.11021e-06
2.40352e-06
-5.2263e-07
-1.88089e-06
-2.7186e-07
2.09715e-07
8.02101e-07
-1.66464e-07
2.74224e-07
-2.39039e-07
-3.51847e-08
6.53735e-08
5.27593e-07
-5.92966e-07
-4.40332e-07
1.76129e-07
5.64892e-08
-1.57808e-07
6.04215e-07
-5.47727e-07
-1.49119e-06
1.65927e-06
-1.68073e-07
-1.27036e-07
-1.36416e-06
2.43388e-06
-9.97787e-07
-1.43609e-06
-4.21514e-06
4.21514e-06
-3.1419e-06
3.1419e-06
-1.20574e-06
1.27111e-06
7.57193e-07
-3.66096e-07
1.12329e-06
-8.0803e-08
-2.11554e-07
-9.8788e-07
-1.15916e-06
-5.95934e-08
-1.47681e-07
-5.03834e-08
-3.44948e-06
8.08827e-07
-8.59209e-07
1.22899e-08
1.78353e-06
-1.79582e-06
-5.08189e-07
1.35589e-06
-8.47697e-07
3.27643e-07
7.95747e-07
-1.0888e-07
-3.33084e-07
4.41964e-07
-2.95665e-06
2.65737e-07
2.69092e-06
-1.87582e-06
1.7879e-08
1.85794e-06
1.08143e-06
-5.34265e-09
8.90125e-07
1.91304e-07
2.075e-06
9.84895e-07
-3.05989e-06
-8.40507e-07
-1.43275e-07
9.83782e-07
-2.98893e-06
1.77675e-06
1.21218e-06
1.19446e-06
-1.04601e-06
-1.48449e-07
1.9476e-06
4.86279e-07
5.81274e-08
2.16099e-07
1.68425e-06
-3.16091e-07
-4.05225e-07
-8.02141e-07
-6.53048e-07
-3.5947e-07
-6.81792e-07
5.7291e-07
1.30036e-06
-1.20365e-06
-9.67142e-08
1.23079e-06
6.95762e-08
-1.9796e-07
1.32125e-06
1.00946e-06
-2.68474e-07
-1.54185e-07
-9.19453e-07
1.07364e-06
3.41264e-06
-8.3196e-07
1.29197e-06
-4.60008e-07
2.22234e-06
1.8118e-07
-5.5165e-07
3.19802e-06
-2.64637e-06
-1.27356e-07
-4.65241e-07
-1.01448e-06
1.34893e-06
-2.03785e-08
-3.12707e-07
3.14667e-06
-8.45647e-07
-2.30103e-06
-2.59285e-08
-1.71894e-09
2.76474e-08
1.13509e-06
-9.88138e-07
-2.28874e-07
7.4687e-08
6.50789e-07
9.974e-07
-1.64819e-06
-1.4646e-06
7.14084e-07
7.50516e-07
-1.55318e-06
5.71091e-06
3.04983e-06
-2.11182e-07
1.16056e-07
-4.3434e-07
3.18284e-07
3.56404e-07
-1.32734e-06
-2.20046e-06
9.98761e-07
-1.03916e-06
4.04009e-08
5.28875e-07
4.69887e-07
1.72305e-06
-2.42496e-06
3.97709e-07
-9.68397e-08
-3.0087e-07
2.55799e-06
6.55133e-07
-1.74735e-07
9.31838e-08
8.15507e-08
-2.10996e-06
1.58733e-06
-2.49007e-07
2.83728e-07
9.61234e-07
-6.38588e-07
4.57004e-07
-3.40949e-07
7.95466e-07
-1.47726e-06
-3.34763e-07
-8.13163e-08
4.16079e-07
-4.94058e-06
9.11102e-07
-1.97704e-07
-6.0041e-07
8.08056e-07
-2.07645e-07
1.60617e-06
6.5403e-07
-1.76036e-06
1.10633e-06
8.39509e-07
-2.4893e-06
1.64979e-06
-5.86524e-07
9.12422e-07
-3.25898e-07
-5.73268e-07
2.05338e-06
-1.48011e-06
-1.72984e-06
1.15657e-06
-2.62782e-06
6.16418e-07
-2.50397e-06
1.51489e-06
6.46949e-07
-1.23142e-07
1.01906e-06
-1.43217e-06
2.20515e-06
-1.01709e-06
2.64308e-06
-1.50272e-06
-1.34306e-06
6.7782e-07
8.88914e-07
2.23515e-06
-2.93948e-07
-1.99977e-07
-1.95949e-06
6.15266e-07
-8.15245e-07
-2.87627e-07
-4.52086e-07
-4.42217e-07
6.61525e-07
8.79731e-07
-1.29444e-06
4.14705e-07
1.78964e-06
-7.32441e-07
9.54492e-07
-2.22051e-07
-1.04641e-06
3.13965e-07
6.92641e-07
1.64649e-06
-2.33913e-06
1.11601e-06
-7.183e-07
-2.76681e-06
2.59606e-06
1.70753e-07
1.82474e-07
3.75734e-10
-4.03757e-06
-1.27667e-06
1.18795e-06
8.87193e-08
-4.41435e-07
-8.35232e-07
-2.15416e-08
1.43429e-07
-1.21887e-07
1.66172e-07
-1.8771e-07
1.1949e-06
1.42005e-06
5.3715e-07
9.44195e-07
-1.48134e-06
-1.19269e-06
-3.82877e-07
-5.14628e-08
4.96611e-07
-2.75189e-07
7.59665e-07
-1.59162e-06
3.13111e-07
6.0562e-07
-9.18731e-07
-1.47368e-07
7.63423e-07
-6.16054e-07
4.42882e-07
1.09166e-06
-1.53454e-06
1.91084e-06
7.62075e-07
1.14877e-06
-4.41996e-07
4.48162e-07
4.69207e-07
-2.08578e-06
1.61657e-06
-4.41792e-07
-1.0422e-06
1.48399e-06
-1.88093e-06
2.5022e-06
-6.21265e-07
-5.37696e-07
-8.89349e-07
1.42704e-06
-7.8284e-07
-6.88275e-07
1.47112e-06
-1.63937e-06
1.02878e-06
-1.13984e-06
1.03182e-06
2.81805e-06
-7.43061e-07
-5.47431e-07
-1.68147e-06
2.66636e-06
-1.21533e-07
6.19389e-08
4.51084e-07
-1.43896e-06
2.12024e-07
6.95442e-07
1.56243e-06
7.8745e-07
3.07221e-07
-3.33149e-07
3.89571e-07
1.0095e-06
-1.39907e-06
4.69832e-08
-6.995e-07
3.27368e-07
7.74897e-07
1.16823e-06
-8.40861e-07
1.77226e-07
7.02502e-07
-4.09573e-07
5.86803e-07
-7.5232e-07
8.11036e-07
-3.77696e-07
-1.23989e-06
-6.4576e-08
-1.7139e-07
2.35965e-07
-1.88453e-06
8.78429e-07
-1.90574e-06
1.02732e-06
9.59033e-08
-4.85095e-07
3.24207e-07
-1.0176e-06
6.9339e-07
-5.31174e-08
2.71964e-07
4.64596e-07
-5.29172e-07
-1.32143e-06
3.99295e-07
9.22135e-07
1.6744e-06
-5.93027e-07
-1.3838e-06
1.99284e-06
-1.11441e-06
-7.09445e-07
-2.41228e-07
9.50672e-07
2.01701e-06
-2.2922e-06
3.032e-06
-2.53538e-06
3.49851e-07
1.8853e-06
6.09366e-07
-5.51501e-07
-5.78644e-08
9.39548e-08
5.15408e-07
-3.76657e-07
4.18959e-08
-7.52808e-07
1.00813e-06
-2.55323e-07
1.22118e-06
-2.19735e-06
-2.15508e-07
3.84989e-07
-2.5743e-06
4.26222e-06
-1.68792e-06
-1.39418e-07
4.63625e-07
2.10715e-06
-2.09486e-06
-5.30562e-07
-2.19272e-07
-5.63277e-07
-1.23727e-07
6.87004e-07
-2.63398e-07
-1.79261e-06
2.05601e-06
-1.38084e-06
-2.38796e-08
1.40472e-06
-4.48125e-07
8.95308e-08
8.69624e-08
3.34585e-06
-1.53516e-06
-7.67163e-07
1.23637e-06
-8.40112e-07
3.9832e-07
-1.01603e-06
2.21093e-06
7.98993e-06
1.04633e-06
-1.52277e-06
4.76441e-07
1.21359e-07
2.4027e-08
-1.45386e-07
2.83407e-07
-8.15818e-07
5.32411e-07
7.66597e-07
-6.88378e-07
-7.82192e-08
-1.30071e-06
4.37694e-07
8.63014e-07
-1.57961e-07
5.09673e-07
-1.01786e-06
4.48861e-07
-3.25007e-06
-6.27726e-07
5.0037e-07
-6.15293e-07
1.50052e-07
4.95238e-07
-7.82866e-07
1.28484e-06
-9.80228e-07
-6.58734e-07
-5.36045e-07
6.3253e-07
4.13803e-07
-3.47392e-07
-9.53321e-07
8.45637e-08
-1.05973e-06
-1.42171e-07
-2.25383e-07
3.67555e-07
1.36535e-06
-1.79528e-07
-1.18583e-06
-1.11467e-06
1.32242e-06
-1.23785e-06
7.85197e-07
7.35784e-07
-5.4219e-07
5.35605e-06
-5.35605e-06
4.51953e-06
-4.51953e-06
1.86629e-07
-8.48576e-07
-3.8952e-06
4.72731e-06
-8.32106e-07
-2.99622e-06
-2.83273e-07
3.27949e-06
1.45122e-07
-8.97927e-07
-1.75018e-06
1.51664e-06
2.3354e-07
2.00377e-06
4.10599e-07
9.78143e-07
7.48067e-07
9.35314e-08
1.5042e-07
-1.19644e-06
1.30655e-06
5.856e-08
6.36476e-07
7.40308e-07
-2.98984e-08
-7.1041e-07
-2.37124e-06
5.58365e-07
-9.36285e-07
-3.54174e-07
1.07787e-07
-2.55808e-07
-9.61187e-08
1.81856e-07
-8.57372e-08
-5.13261e-06
5.13261e-06
2.6217e-07
-1.08963e-07
-1.53207e-07
2.9461e-08
-1.62974e-06
1.6232e-06
-9.69167e-07
2.3499e-06
-1.51039e-06
7.01481e-07
-1.46521e-06
7.6373e-07
7.14845e-07
-1.3364e-08
6.59076e-07
-7.69106e-07
1.89424e-07
-7.89833e-07
-1.06678e-06
1.50966e-06
-1.76775e-06
-6.60103e-07
-3.43422e-08
-1.78342e-08
-7.75604e-08
7.16429e-07
3.38283e-08
-4.75823e-07
-2.00527e-06
9.63064e-07
-2.67967e-06
5.93888e-07
2.17852e-07
-2.35685e-07
-1.5665e-07
5.09282e-07
-3.52632e-07
3.00794e-07
-2.0643e-06
-3.06831e-06
8.80347e-08
6.75389e-07
1.40394e-07
3.44126e-07
-3.85833e-07
6.98944e-07
3.86311e-07
-8.57281e-07
4.70971e-07
7.21535e-08
-4.1104e-07
-1.04973e-09
1.2208e-06
-1.4842e-06
7.54527e-07
4.72806e-07
1.32814e-07
7.82395e-07
3.56752e-07
-2.25307e-06
1.89631e-06
1.32837e-06
-8.7729e-07
1.3322e-06
-3.82766e-09
4.00695e-07
-2.79335e-07
2.52684e-06
-8.03788e-07
1.43604e-06
1.09081e-06
-1.87241e-06
1.62041e-06
2.51997e-07
1.88093e-06
-2.13633e-07
1.11341e-06
-1.31499e-07
-9.81908e-07
3.70102e-07
-6.09141e-07
8.7869e-07
-1.41638e-06
3.65425e-08
-7.71443e-08
4.06018e-08
9.35975e-07
-8.99432e-07
-1.02611e-06
1.00008e-06
2.60316e-08
-5.71642e-07
-1.30077e-06
-3.5942e-07
-6.86983e-07
9.4713e-07
-1.74364e-06
-2.4715e-06
-1.36005e-06
-1.78185e-06
-2.76681e-06
8.88979e-07
5.52166e-08
-1.34661e-07
-2.53116e-07
3.87777e-07
-6.09808e-07
6.80843e-07
-7.10354e-08
1.0504e-07
-4.03468e-07
-1.59174e-08
4.19386e-07
-1.84142e-06
-1.01454e-07
-1.76455e-06
-9.16609e-07
-1.86735e-08
9.35282e-07
1.96747e-06
-1.97818e-06
2.93881e-06
-2.92947e-06
-3.0695e-06
3.0695e-06
3.10839e-07
8.49436e-07
-1.60827e-06
4.30529e-07
-3.1944e-07
-1.11089e-07
-1.13925e-06
-6.5463e-07
1.79388e-06
2.33076e-07
1.97452e-07
-6.51759e-09
-1.15016e-07
3.6658e-06
-2.42188e-06
-1.24391e-06
2.16317e-07
-2.57871e-06
2.99212e-06
-1.56174e-06
-1.27551e-06
6.22461e-07
-6.31951e-07
9.32746e-07
1.55133e-06
-1.12957e-06
-4.21759e-07
6.00656e-07
5.01341e-08
1.05013e-07
-2.08746e-07
1.03732e-07
-6.40166e-07
7.45185e-07
3.52964e-07
-5.94143e-07
1.12302e-06
1.28124e-06
-4.94776e-07
-5.92911e-07
5.92911e-07
2.11802e-07
-8.43635e-07
1.01324e-06
-1.78566e-06
7.72426e-07
1.08602e-06
-2.34624e-06
1.26022e-06
3.97147e-08
1.41874e-06
-9.2559e-07
1.91485e-06
-9.89263e-07
2.11897e-06
5.93708e-07
-4.73514e-07
5.12905e-07
-1.0087e-06
-1.36254e-06
8.18383e-08
2.14179e-06
-1.49553e-06
2.39464e-06
8.33e-07
-1.7538e-06
9.208e-07
-1.44717e-06
6.2967e-07
7.02531e-07
-8.47806e-07
-3.98868e-07
2.56697e-07
-4.81702e-07
2.12819e-06
-6.92794e-07
-1.70408e-06
2.74512e-06
-1.04104e-06
-1.04169e-06
1.98169e-06
-9.39993e-07
2.69551e-06
-1.07893e-06
1.56807e-06
-8.40777e-08
2.89469e-06
6.90208e-07
-7.3349e-07
6.34643e-07
3.3478e-07
-9.62505e-07
-3.53128e-07
4.75697e-07
6.37709e-07
2.51008e-08
1.73628e-07
-7.83688e-07
2.70493e-07
1.26554e-06
-1.53604e-06
3.27223e-06
-1.20357e-06
-2.06865e-06
1.16227e-06
-5.84464e-07
-2.48503e-06
-1.1703e-07
-5.23136e-07
9.37029e-07
3.47811e-07
-2.21113e-07
-1.75311e-08
2.38644e-07
-1.30811e-06
1.08273e-06
-1.94502e-06
1.94067e-06
-7.67666e-07
-2.58447e-07
-2.97538e-06
7.34716e-07
2.24066e-06
-8.02741e-07
3.93801e-07
4.0894e-07
-4.38754e-07
5.32709e-07
-8.81491e-07
3.18214e-07
7.44369e-07
-1.78606e-06
8.89927e-07
-2.59401e-06
-1.29072e-07
2.09126e-06
4.07892e-07
3.8423e-07
-7.92122e-07
1.30285e-06
-2.01973e-06
-1.96482e-07
1.31792e-07
3.08913e-07
-3.62028e-07
-2.28309e-06
2.28309e-06
4.21044e-07
5.40189e-07
2.3264e-07
2.24364e-07
-1.3039e-06
-1.14505e-06
-2.40481e-06
1.23289e-08
6.68514e-07
3.00113e-07
1.07306e-08
2.19243e-07
-9.13688e-07
8.46704e-08
-1.63998e-06
9.5216e-07
6.8782e-07
3.86995e-07
9.68894e-07
-5.70887e-07
-1.53577e-07
7.75012e-07
-1.01214e-07
-6.73798e-07
-7.54416e-07
1.52943e-06
-7.84997e-07
-1.70717e-06
4.37183e-07
-1.04506e-06
-7.32873e-07
-1.77729e-07
-7.16558e-08
2.49384e-07
-2.90029e-07
2.71352e-07
-1.39476e-06
3.556e-07
-3.61122e-06
2.8355e-06
-2.83561e-06
-1.60606e-07
-2.89232e-07
1.47504e-08
2.74481e-07
7.89927e-07
-1.87235e-06
1.81447e-06
-2.7458e-06
6.37298e-07
7.28058e-07
2.04596e-06
-1.96452e-06
-8.1439e-08
1.13325e-06
9.12708e-07
3.24129e-07
-3.25847e-07
-2.11336e-06
6.17823e-07
-2.32165e-06
8.40299e-07
-2.24182e-06
-7.98228e-08
-2.00997e-06
2.23301e-06
-1.86482e-06
1.38312e-06
-2.2303e-06
-5.29945e-07
9.11857e-07
-5.03966e-07
-2.72758e-06
-8.57305e-07
1.66431e-06
-2.7131e-07
5.56676e-07
-5.14646e-07
5.5067e-08
5.01611e-07
2.88158e-07
4.06092e-07
-6.94249e-07
-2.97722e-07
2.01601e-07
5.22385e-06
2.76608e-06
2.87385e-08
-2.49852e-07
-2.92104e-07
6.78415e-07
1.04496e-07
-2.80658e-06
2.70209e-06
7.14662e-07
1.81742e-06
-5.67016e-07
2.2686e-06
-3.42587e-07
1.13474e-06
-1.11686e-06
1.68902e-06
-1.42328e-06
-8.29253e-07
-1.12546e-08
7.95951e-07
-3.58746e-07
-4.37205e-07
-1.02989e-06
2.63744e-06
-1.60755e-06
8.8895e-07
-2.22109e-07
-3.70798e-07
-1.80238e-06
-9.58526e-08
1.89824e-06
-3.99859e-07
-4.43037e-07
8.42896e-07
-1.23926e-06
6.45117e-07
8.11231e-07
-3.29099e-07
-4.82132e-07
-6.23664e-08
4.50464e-07
-2.15763e-06
8.83453e-07
-1.66845e-06
-6.3967e-07
-1.63066e-07
2.45423e-06
1.86159e-06
4.67557e-07
1.08378e-06
2.49943e-07
-2.26634e-07
-4.61739e-07
-1.01145e-07
-2.32074e-06
1.95224e-06
-9.27102e-07
-3.15065e-07
1.24217e-06
2.85347e-07
-1.21245e-06
4.65254e-07
1.20914e-06
-1.54653e-06
9.41127e-07
-4.75872e-07
-9.30974e-07
1.76398e-06
1.57122e-06
-1.60122e-07
-1.64226e-06
7.24128e-07
-1.12399e-06
3.31504e-07
-3.80035e-07
4.8531e-08
1.11287e-07
2.20214e-07
3.85593e-06
4.0629e-07
6.30333e-07
-6.50709e-07
-3.42227e-06
-4.72935e-07
9.84926e-07
-1.88972e-07
2.71532e-06
-2.61082e-06
-9.96541e-08
6.12559e-07
2.10066e-07
2.02894e-06
-1.02152e-06
-1.00742e-06
9.7943e-07
-1.71292e-06
-7.4903e-07
1.14832e-06
-3.2788e-07
-6.6641e-07
-3.26612e-07
9.9577e-07
-6.69158e-07
-4.66102e-07
8.82181e-07
6.25549e-07
-1.11218e-06
2.22834e-07
1.64004e-07
-3.30884e-07
7.72847e-07
-8.54178e-07
1.94075e-07
-2.01713e-06
4.38169e-07
1.57896e-06
-3.00927e-06
8.64779e-07
2.14449e-06
2.56331e-07
1.60246e-06
-1.8588e-06
-6.70414e-07
-1.19441e-06
2.3225e-06
-7.71343e-08
-8.42316e-07
-3.41264e-06
4.5766e-06
-1.16395e-06
-1.21303e-06
-6.97272e-07
5.53998e-07
-1.93062e-06
-5.35199e-07
2.46582e-06
-2.28134e-06
-7.85034e-07
-1.54103e-06
-8.97427e-07
6.90677e-07
-5.41258e-07
-1.49419e-07
1.4835e-06
-7.23833e-07
1.32156e-07
-1.32156e-07
-6.13407e-07
-5.02723e-07
-1.48456e-06
-5.23385e-07
5.81513e-07
7.8707e-07
-2.47499e-06
-2.97297e-07
1.66898e-07
1.30398e-07
4.85519e-07
-3.11883e-07
6.10398e-07
-2.86346e-06
2.0711e-07
4.49511e-07
3.52861e-07
2.84341e-06
1.10138e-06
-2.14357e-06
1.85354e-06
1.6904e-06
1.05796e-06
1.06212e-07
-8.89901e-07
1.41645e-06
-9.33245e-07
5.34376e-07
-2.43031e-06
1.49706e-06
7.1012e-08
4.0551e-06
3.14573e-06
-1.20609e-06
6.13067e-07
7.15013e-07
-1.12263e-06
-1.52875e-07
-9.55569e-07
-3.73865e-07
1.19717e-06
-5.94976e-07
-6.02194e-07
1.60977e-06
3.74628e-06
1.45122e-06
3.06831e-06
-6.01437e-07
-9.96164e-07
6.65277e-07
3.61166e-07
-1.74738e-07
-1.86428e-07
-1.67985e-06
4.35941e-07
-4.40237e-07
5.05256e-07
-7.6163e-08
1.87005e-06
-2.44892e-06
-1.90435e-06
5.76605e-07
-1.59187e-07
-3.18353e-07
-6.33127e-07
3.3583e-07
4.26869e-07
5.8648e-08
7.83944e-07
-9.74149e-07
9.90516e-07
-1.21873e-06
2.28218e-07
-1.28696e-07
1.18618e-06
-2.55132e-06
5.82556e-07
1.96877e-06
8.84232e-07
4.74545e-09
-2.30172e-06
-2.82629e-06
2.10709e-07
-7.96895e-07
1.61851e-06
3.676e-07
4.71088e-07
-2.43424e-06
3.92894e-09
-4.76877e-07
5.96445e-07
9.20194e-07
8.52779e-07
-3.53607e-07
1.3987e-06
-1.04509e-06
3.63824e-07
-4.92518e-07
8.37034e-07
8.22443e-07
-2.74566e-07
-7.33651e-08
1.22993e-06
6.16888e-07
3.00197e-09
1.1982e-06
-1.27747e-07
1.06927e-06
1.43352e-06
-3.64249e-07
-2.03202e-06
7.25379e-08
-8.05896e-07
6.09414e-07
-3.54411e-06
1.47981e-06
-1.08102e-06
1.35151e-06
3.03213e-07
-5.29098e-07
2.25885e-07
8.62689e-07
1.91823e-06
-1.20842e-06
-2.39639e-07
-8.64829e-07
1.82789e-06
-1.76049e-06
2.35438e-06
-2.05605e-06
1.85809e-06
-6.65888e-07
2.52208e-08
-2.58286e-07
2.33065e-07
-3.34101e-07
3.59322e-07
-3.13205e-07
3.58487e-07
1.125e-06
7.62878e-07
-8.33913e-07
-8.19416e-07
-4.61046e-07
-2.51433e-06
6.91794e-07
-6.79463e-07
-2.03368e-06
-2.28275e-07
2.26196e-06
4.95334e-07
-1.37051e-07
-3.58283e-07
-5.33806e-07
-9.50507e-07
4.16702e-07
-6.65672e-07
8.81767e-07
-6.45607e-07
1.22221e-07
-4.63859e-07
1.22759e-06
-1.80984e-07
-1.78354e-06
-1.0749e-06
8.93914e-07
-6.12304e-07
5.11402e-07
2.43125e-07
8.73388e-07
5.25308e-07
4.21248e-09
1.16735e-06
5.19574e-07
-4.86039e-08
-5.82209e-07
-1.17159e-06
3.63286e-06
1.09445e-06
-4.95223e-07
1.39339e-06
-2.01543e-07
5.61349e-07
3.92854e-07
-9.54202e-07
1.30133e-06
-7.39982e-07
3.62789e-07
-1.98786e-07
-7.33608e-07
1.99338e-08
-2.59573e-07
-3.62942e-07
4.43858e-07
-1.99704e-06
-2.23706e-06
-3.14265e-07
1.1807e-06
-3.71878e-07
-2.43818e-07
1.18213e-06
3.51614e-07
-1.43055e-06
6.62007e-07
-7.46082e-07
5.05619e-07
-2.71741e-07
-1.30313e-06
-1.7343e-06
2.1139e-06
-8.23112e-07
-1.29079e-06
3.03926e-06
-1.11995e-06
-1.91931e-06
-4.60803e-07
2.15304e-07
2.45499e-07
6.06449e-08
5.64904e-07
-3.72575e-07
1.97839e-07
-2.46817e-07
-1.65087e-06
-6.05568e-07
-3.4494e-07
-4.96524e-07
-3.21209e-08
5.28645e-07
-6.35363e-07
1.69436e-06
1.80029e-08
-1.71236e-06
1.4514e-06
1.9508e-06
1.47497e-06
1.12109e-06
-4.92708e-07
2.4889e-07
-8.44939e-07
1.8544e-06
3.33165e-07
-1.72983e-07
-3.69207e-07
4.52393e-07
2.61687e-07
-4.38737e-07
6.05637e-07
1.62943e-06
-1.32366e-07
-9.90389e-07
4.19501e-07
-1.15293e-06
-3.68686e-08
1.55299e-06
-1.06321e-06
1.01098e-06
-7.0296e-07
-6.5722e-07
-6.50929e-07
1.51522e-07
-2.1852e-06
1.28608e-06
-3.02973e-06
8.14381e-07
-2.17443e-06
3.38682e-08
3.28923e-07
2.28687e-07
-4.00076e-07
-2.09761e-07
4.8111e-07
1.90559e-06
-5.17402e-08
9.63947e-07
1.47223e-07
-1.11117e-06
1.37866e-06
5.3508e-07
5.98174e-07
1.12896e-06
-2.13155e-06
2.13155e-06
-1.67931e-06
-4.6426e-07
1.3969e-07
-1.819e-06
6.31428e-07
-5.70784e-07
7.45457e-07
-6.57422e-07
6.78282e-07
6.71735e-08
1.64042e-06
-1.64042e-06
-1.46112e-06
1.60346e-07
1.47497e-06
1.31127e-06
2.04391e-06
-2.10147e-06
3.08859e-07
5.81226e-07
-1.88605e-06
-1.23828e-06
-9.13571e-08
-1.17384e-07
2.11681e-06
6.28308e-07
1.78235e-06
1.99337e-07
9.974e-07
-1.14522e-06
-1.40058e-06
4.60372e-07
9.40206e-07
-1.30771e-06
3.42452e-06
-8.08399e-07
2.59075e-06
-4.64017e-07
9.59352e-07
-1.64819e-06
1.39273e-06
-3.90919e-07
-3.14051e-06
-2.21554e-06
-2.59319e-06
-1.92634e-06
-1.88379e-07
7.3364e-08
1.59952e-06
2.99047e-08
-1.04772e-06
-5.72703e-07
3.76967e-06
-1.22995e-06
-2.53972e-06
2.65078e-06
-8.0008e-07
-1.8507e-06
1.84238e-06
2.46196e-06
-2.04101e-08
-5.24335e-07
5.44745e-07
-1.36304e-06
-3.17193e-08
-3.53234e-07
9.49474e-08
-2.38689e-06
3.99665e-06
-2.09289e-06
-1.75902e-06
8.91196e-07
8.86804e-07
-5.20274e-07
6.13455e-07
-1.93812e-06
-1.33193e-06
6.96571e-07
3.87643e-07
-1.58958e-07
8.85097e-07
-5.21274e-07
1.69196e-06
-8.41861e-06
2.19004e-08
-5.63158e-07
-9.58695e-08
3.59217e-08
2.20299e-07
1.52315e-06
-1.88683e-07
-6.56996e-07
2.69233e-07
2.62076e-07
-1.25609e-06
-7.63641e-07
-3.61206e-07
-1.92188e-06
3.75978e-07
-1.41984e-06
1.55982e-08
1.5814e-07
-1.73738e-07
4.31347e-07
1.59759e-06
-1.15052e-07
9.10518e-07
-3.2515e-07
5.44392e-07
1.15423e-07
-5.99869e-08
-5.54358e-08
-6.73383e-07
1.19926e-06
2.09157e-06
2.48503e-06
-1.18834e-06
4.19228e-07
2.28323e-07
-1.59105e-07
8.10591e-07
8.51046e-07
-1.66164e-06
1.68399e-06
1.03641e-08
1.34788e-07
3.76614e-07
-1.02153e-06
-7.07214e-07
5.4731e-07
-8.60714e-07
3.13404e-07
-2.80173e-07
-8.74439e-07
3.55362e-07
5.19077e-07
1.06644e-08
4.86831e-07
1.11269e-06
1.21287e-07
-4.10946e-07
-6.55469e-07
2.78033e-07
1.32963e-06
-1.23635e-06
1.22876e-06
-2.51429e-07
-1.37595e-06
-8.51651e-08
-3.23155e-07
2.49793e-07
-1.24788e-06
7.17393e-07
-1.09829e-06
-4.2448e-07
1.4115e-06
-1.60717e-06
5.0859e-07
-1.41602e-06
-2.70777e-07
-5.67583e-07
-4.22806e-07
-7.4711e-07
3.38457e-08
-1.20982e-06
-6.65638e-07
1.14788e-07
5.5085e-07
3.03926e-06
2.11389e-06
4.67783e-06
-6.68205e-07
-1.27533e-06
1.34932e-06
-1.0458e-06
-1.31404e-06
4.61241e-07
-2.51176e-07
-1.69554e-06
2.18287e-07
-1.06521e-06
-4.76858e-07
5.9228e-07
-1.15986e-06
-7.46135e-07
-1.49186e-07
-5.07809e-07
4.32467e-08
2.93088e-07
-5.71222e-08
9.58839e-07
-6.65751e-07
-3.4112e-07
1.35062e-06
8.77775e-07
8.51508e-07
-5.95877e-07
1.51467e-06
1.21894e-07
3.87385e-07
5.29491e-07
7.3605e-07
5.76841e-07
4.50474e-07
2.89469e-06
4.10766e-07
3.99824e-07
5.35967e-07
1.12018e-06
2.01421e-06
-1.65861e-06
3.57055e-06
-9.27471e-07
2.84029e-06
-6.35146e-07
5.06992e-07
4.51849e-07
-1.36196e-07
5.04675e-07
-8.33774e-07
-3.30149e-07
7.07532e-07
-3.77383e-07
-8.56952e-07
3.70799e-07
-3.52826e-07
3.97203e-08
8.54756e-07
-2.07803e-07
1.06256e-06
1.9245e-06
-2.13103e-06
1.33562e-07
-1.9444e-06
1.20639e-06
7.38007e-07
-5.21799e-08
6.45074e-07
-4.30812e-07
-2.14261e-07
1.11263e-06
-3.03375e-06
-1.08151e-06
-2.51901e-06
-8.84508e-07
-1.83636e-06
-8.30192e-07
4.97364e-07
-3.23062e-07
-1.23292e-06
-1.02198e-06
-7.52128e-07
-4.36206e-07
-2.40655e-07
2.42262e-07
-2.62672e-07
3.33743e-07
7.16459e-07
-8.73443e-08
-4.33932e-07
-1.20975e-06
-1.04293e-07
-4.76295e-07
2.02814e-07
-8.15515e-07
-9.26458e-08
5.6921e-07
3.14573e-06
4.0551e-06
-8.38542e-07
2.5085e-07
-2.30103e-06
-2.72758e-06
-1.12203e-06
-9.2589e-07
-8.33133e-07
8.70016e-07
1.29465e-06
-1.08394e-06
-2.22727e-06
1.3193e-06
9.07967e-07
-1.67324e-06
1.23643e-06
4.36804e-07
4.83719e-07
-9.30136e-08
1.20982e-06
-9.21658e-07
1.87369e-07
6.2815e-08
-3.87897e-08
-1.66053e-06
6.44496e-07
-9.02941e-07
-2.19091e-07
6.07489e-07
-6.66409e-07
-4.03819e-07
-6.41984e-07
3.38333e-07
6.27533e-07
1.9444e-06
3.38691e-07
-1.92553e-08
5.96098e-07
-7.20649e-07
-2.75513e-07
2.50451e-06
-7.68153e-07
7.62953e-07
-1.14476e-06
1.04511e-06
3.4297e-06
2.25995e-06
-9.19031e-08
-5.30224e-07
8.87873e-08
-2.35731e-08
-5.41445e-07
5.65019e-07
2.95113e-07
1.76484e-07
-8.27049e-07
5.66987e-07
-3.00601e-07
-9.3866e-07
4.62323e-07
-1.61283e-07
-3.0104e-07
4.53865e-07
7.37464e-09
5.9366e-07
3.07246e-07
-8.47171e-08
-1.02208e-09
-4.2511e-07
3.4101e-07
8.40997e-08
1.268e-06
-2.23762e-06
3.02282e-06
5.80536e-06
-5.80536e-06
-4.14312e-07
-5.16236e-07
1.16897e-06
-2.12195e-06
-1.75456e-06
-9.67043e-07
-9.00815e-07
1.41138e-06
1.71408e-07
-1.58279e-06
-1.40425e-07
9.91469e-07
-3.41973e-07
3.26056e-07
7.96606e-07
-5.53468e-07
5.53468e-07
-4.5031e-07
-7.9506e-07
1.22254e-06
-4.74473e-07
1.45497e-06
-1.04437e-06
1.59707e-06
-1.50321e-07
9.08461e-07
-2.67621e-06
1.17108e-06
-7.91794e-07
1.23796e-07
7.42034e-07
-6.18238e-07
-3.09686e-06
3.52851e-06
-4.31654e-07
8.91023e-07
6.34661e-08
-3.1558e-06
5.89495e-08
-4.52786e-07
9.95532e-08
-6.17239e-07
8.08943e-08
-4.70393e-07
-2.20061e-07
-1.9804e-06
-5.12468e-07
2.85868e-08
-4.68505e-07
-8.81532e-07
5.22802e-08
-9.57694e-07
6.12607e-07
1.11078e-06
-1.13943e-06
1.74167e-06
-6.02237e-07
2.43362e-06
4.06673e-07
2.93277e-06
6.37777e-07
3.40729e-07
5.45883e-07
1.71805e-07
-4.6391e-07
-2.48461e-06
-5.934e-06
-1.60688e-06
1.37814e-07
3.26781e-07
3.10569e-07
-1.72755e-07
1.17347e-06
1.9294e-06
-1.0891e-06
1.70933e-06
1.21531e-06
-7.3858e-07
-1.16577e-06
-1.30709e-06
-1.14184e-06
3.95772e-07
-2.80982e-07
-3.14051e-06
-2.59319e-06
1.18767e-06
6.93742e-07
9.96765e-07
-3.57272e-07
8.11138e-07
2.20424e-07
7.95102e-07
4.57718e-07
8.17891e-07
-2.90297e-07
1.84689e-08
6.25917e-07
1.09864e-07
-3.83112e-07
1.05275e-06
-7.43897e-07
6.50295e-07
-6.43755e-07
-6.53999e-09
7.3365e-08
-5.11497e-07
4.38132e-07
2.38302e-07
1.41786e-07
1.08181e-06
9.23836e-07
5.60329e-07
-1.57122e-06
2.94711e-07
2.98282e-07
-1.94548e-07
-2.65189e-06
-1.28193e-06
1.30796e-06
1.31665e-06
1.67546e-06
-1.0116e-07
-3.41056e-07
1.35193e-08
-1.66727e-07
-2.79684e-08
9.07022e-08
6.37355e-07
-2.54721e-07
2.94681e-07
4.7564e-07
-6.95473e-08
-4.467e-07
2.73324e-06
-3.17994e-06
-7.75593e-08
2.52614e-07
6.96225e-07
1.99628e-06
2.72317e-07
1.89897e-06
-8.15466e-08
6.41582e-07
-5.94591e-07
-1.98853e-06
2.3993e-06
7.00661e-07
-2.54304e-06
1.84238e-06
7.72001e-07
5.39268e-07
6.27457e-07
1.41645e-06
-9.654e-07
-2.56807e-07
3.20276e-07
1.21682e-08
-3.32444e-07
-3.36283e-06
-4.67082e-06
3.83871e-06
-1.93758e-06
1.9804e-06
-1.29225e-07
1.67553e-07
-1.78305e-07
-2.1916e-06
-1.56877e-06
-6.17004e-08
-1.65066e-06
1.61851e-06
1.15235e-06
2.38459e-06
-1.68989e-06
-3.73242e-07
-5.04497e-07
8.02781e-07
-5.11244e-07
1.1142e-07
3.99824e-07
1.57383e-08
-4.1631e-07
-4.31496e-07
1.02417e-06
-1.44048e-06
5.46885e-07
2.22905e-06
-9.09753e-07
1.74784e-06
-5.11404e-07
8.59001e-07
-1.08465e-07
-8.92392e-08
3.36174e-07
-4.84625e-07
7.38004e-07
1.09328e-07