/*--------------------------------*- C++ -*----------------------------------*\
  =========                 |
  \\      /  F ield         | OpenFOAM: The Open Source CFD Toolbox
   \\    /   O peration     | Website:  https://openfoam.org
    \\  /    A nd           | Version:  7
     \\/     M anipulation  |
\*---------------------------------------------------------------------------*/
FoamFile
{
    version     2.0;
    format      ascii;
    class       volVectorField;
    location    "0.15";
    object      U;
}
// * * * * * * * * * * * * * * * * * * * * * * * * * * * * * * * * * * * * * //

dimensions      [0 1 -1 0 0 0 0];

internalField   nonuniform List<vector> 
2016
(
(0.42632 0.144014 -1.04497e-17)
(0.347797 0.164733 -3.17449e-16)
(-0.256525 -1.26585 0)
(0.264764 -1.12976 0)
(0.156007 0.200011 0)
(0.279528 -1.33392 1.48985e-17)
(-1.44748 -1.03891 1.9885e-18)
(4.54279 -1.30608 0)
(0.946147 0.767434 -2.31068e-16)
(1.03245 0.88143 0)
(0.191105 0.706481 -2.61838e-16)
(0.26105 0.159535 3.81004e-17)
(0.314966 -0.28739 0)
(3.6833 0.38478 0)
(1.25935 0.35482 0)
(2.02579 -0.0344461 0)
(1.35067 0.0337519 0)
(2.03383 0.114697 -1.07864e-16)
(1.72614 -2.10543 -2.38359e-17)
(1.45857 1.52437 7.92824e-18)
(0.166712 0.140882 2.90759e-16)
(0.71182 -0.621834 4.39757e-18)
(1.04848 0.0367464 -1.13509e-17)
(1.60628 -0.0673871 2.86129e-17)
(-0.112939 0.535354 4.87177e-17)
(0.308516 -1.02744 0)
(-0.0922244 1.25701 -6.53062e-17)
(-0.0854368 0.80918 5.91387e-17)
(1.98183 -1.97235 1.42833e-16)
(1.42409 -0.625343 -1.15439e-16)
(2.85945 -0.0849984 1.50012e-16)
(-0.0751997 -0.0479106 4.1493e-17)
(0.635389 -2.6219 1.39808e-16)
(0.427759 0.627167 -1.06637e-16)
(0.809723 1.29916 0)
(1.96727 -0.543432 0)
(1.18777 -0.0636178 0)
(0.938349 -0.143449 1.0688e-16)
(2.41599 1.72132 1.69415e-16)
(-0.314542 0.602826 -4.03933e-17)
(1.62057 -0.696482 5.02669e-17)
(1.3697 0.27202 -2.0026e-17)
(-0.159172 0.535556 0)
(1.20488 0.125275 2.59283e-16)
(0.432938 0.293659 -1.5259e-16)
(0.925984 0.415415 0)
(2.09166 1.78721 0)
(0.129646 -0.0197052 0)
(0.762933 0.930352 1.86729e-17)
(1.05811 0.118504 6.56373e-17)
(-0.215767 0.173545 -4.70772e-17)
(0.69624 0.397735 1.03964e-16)
(2.68312 0.0755906 3.99115e-18)
(1.71923 -0.0455047 -1.55425e-18)
(-0.196793 -0.919911 -1.14151e-16)
(5.15048 -0.906228 0)
(-1.60085 -1.17879 -9.37586e-18)
(3.56287 -2.92806 0)
(0.362562 0.290956 0)
(0.0841182 -1.4111 0)
(-0.0395384 -2.07241 0)
(1.55306 -0.262766 5.577e-17)
(1.9845 -1.43631 -1.28645e-16)
(3.23247 -2.75809 -1.15317e-16)
(1.2635 0.520014 2.41251e-16)
(1.54562 0.451425 1.23557e-16)
(2.66359 -2.23572 0)
(-0.0277903 -0.996344 1.4848e-16)
(0.54745 -0.257518 0)
(1.71624 -1.46409 0)
(1.80482 1.05268 -5.31817e-18)
(1.21633 0.0453811 -8.40142e-18)
(2.15295 -1.82293 9.04153e-18)
(1.98595 1.36843 1.12432e-17)
(0.27238 -1.1538 -2.21162e-17)
(1.4284 0.0360894 -9.37884e-18)
(1.28308 0.0870403 0)
(0.938481 0.251227 0)
(0.62878 0.396395 3.09068e-16)
(1.49821 -0.211128 1.22808e-16)
(-0.266981 -1.77901 -1.55849e-16)
(-1.74824 -1.24846 1.82516e-17)
(-0.388122 0.282316 6.20899e-17)
(-0.123341 -0.261527 8.53688e-17)
(0.758624 -0.84056 -4.47389e-17)
(-2.30322 0.485393 -1.23624e-16)
(3.61177 -1.34092 4.79594e-17)
(-0.177313 -0.896152 5.93194e-18)
(1.82903 -1.12667 0)
(0.699131 0.780819 1.85843e-17)
(0.477172 0.229657 -1.58215e-16)
(1.67182 -0.682642 -5.26878e-17)
(1.36682 0.297015 2.18312e-17)
(0.89393 0.131064 -3.34637e-16)
(1.10913 0.758046 2.70163e-16)
(-2.12087 0.428794 1.34909e-16)
(1.57051 -1.58414 0)
(1.42064 -1.07687 0)
(1.69337 0.863739 -1.09622e-16)
(0.530226 -0.338294 2.15287e-17)
(0.0698219 -0.190896 -1.95353e-17)
(0.16924 -0.628808 0)
(1.17679 -0.428638 -1.53925e-16)
(1.92775 -0.172408 -3.53563e-16)
(1.67948 0.160073 0)
(0.979162 -0.45879 0)
(1.41844 -0.188088 2.53035e-16)
(0.206151 -1.04405 -1.03028e-16)
(-1.58498 -1.0902 9.44174e-17)
(1.94082 1.20622 -8.42494e-18)
(2.45211 -1.69657 2.53224e-17)
(0.896361 0.58893 4.80695e-16)
(0.938144 0.407245 -3.14562e-16)
(-1.63879 -0.932052 0)
(0.357409 0.21433 -4.3431e-17)
(0.555245 0.463683 -2.73185e-16)
(0.505272 -0.388324 6.94209e-17)
(0.535724 -0.149326 -3.24358e-16)
(-1.06219 0.313046 -3.06602e-17)
(3.87304 0.242119 -1.25607e-16)
(0.185831 0.368015 3.14014e-16)
(0.0458364 -0.453848 3.53516e-16)
(4.15474 -0.326629 0)
(0.961098 -1.17264 2.76769e-16)
(1.91462 0.128518 0)
(1.50097 -1.44448 3.0861e-16)
(3.1838 0.311639 0)
(2.94562 0.59459 1.39956e-16)
(-0.0643405 -0.856999 0)
(0.234229 -0.297022 0)
(0.949455 -0.0829878 -1.36063e-16)
(-1.3717 -0.969282 0)
(-1.80013 -0.0314047 3.03774e-17)
(-0.565252 0.646817 -1.85649e-17)
(2.45129 1.17918 -1.14364e-16)
(1.00495 1.65302 -5.40182e-18)
(-1.53275 -0.129329 2.63702e-17)
(0.151262 -1.16486 0)
(-0.147441 -0.313338 0)
(-1.68615 -0.837045 -6.70772e-17)
(0.353127 0.545625 0)
(0.190566 -1.03886 -3.85084e-18)
(1.35048 0.397308 -2.60582e-16)
(0.535424 -0.334333 3.31088e-16)
(0.549552 0.274918 1.55149e-16)
(0.923613 -0.228826 7.95762e-17)
(-0.204907 -0.0403258 -6.4879e-17)
(-0.190377 -0.621786 -4.52885e-17)
(-2.11126 -0.451519 -5.91781e-17)
(1.71887 -0.184035 -9.2401e-17)
(0.98025 0.890247 -1.57515e-16)
(1.4243 0.970755 0)
(2.75195 -3.74069 1.20916e-16)
(-1.02534 0.70303 1.31092e-16)
(1.49406 -0.436256 0)
(1.0963 -0.245705 1.49511e-16)
(1.68391 0.0612786 2.92846e-16)
(-2.13436 -1.24976 -7.05338e-17)
(0.41052 0.31206 -2.88181e-16)
(0.708986 0.49668 -1.059e-17)
(1.47655 1.46517 0)
(1.75073 -1.96368 0)
(1.83592 0.119569 2.70972e-16)
(-0.250826 -0.163551 1.56268e-16)
(1.34522 0.788907 -1.56977e-16)
(1.47599 0.661962 3.2899e-16)
(1.52236 -0.180798 -1.23817e-18)
(2.36261 0.349611 3.5071e-18)
(-2.51096 -0.730684 2.55465e-17)
(-1.42439 -1.28156 -7.66613e-17)
(-0.900444 -0.680405 0)
(-0.660275 -0.515649 1.66026e-17)
(-0.0693562 -0.625442 -3.6863e-17)
(-0.311601 -0.0770592 6.79413e-18)
(4.87902 4.10989 -1.6542e-17)
(0.0589017 -0.387204 -2.55167e-17)
(0.344362 -0.708421 -5.92165e-17)
(-0.344626 -0.841825 -5.62614e-17)
(1.77997 0.0185337 0)
(1.56858 -2.57202 0)
(1.43255 0.73329 -1.80313e-17)
(1.55426 -1.33374 1.0026e-16)
(0.791364 -0.0741529 4.84596e-16)
(0.54501 -0.0788705 0)
(1.73557 1.57568 -3.72417e-17)
(1.66337 -0.132176 0)
(0.622362 0.530028 -1.95444e-16)
(-0.492846 -0.0722592 -3.74323e-17)
(1.7783 0.337157 3.54762e-18)
(2.77962 -0.528764 -1.69647e-18)
(0.473191 0.161588 5.13083e-17)
(1.59127 -0.130898 2.50946e-16)
(0.770633 0.0865872 0)
(1.60283 1.48257 -1.713e-17)
(1.793 -1.98277 5.09813e-17)
(1.55016 0.459741 0)
(1.78912 -0.976592 -6.97369e-17)
(0.721891 -0.155314 0)
(0.752183 0.332202 2.72167e-16)
(0.982823 0.232827 0)
(0.5759 0.346039 -2.60848e-16)
(3.32736 1.41779 7.04504e-17)
(0.371983 0.273781 -2.02328e-16)
(0.225076 0.0680362 -1.74121e-16)
(-0.264115 -0.641852 -6.01953e-17)
(1.70687 0.339582 0)
(0.880512 0.405724 2.36899e-16)
(-1.56412 -0.723419 5.25371e-17)
(1.7258 0.228004 -3.29293e-16)
(1.1955 0.0761458 3.50723e-16)
(1.90007 -0.487569 -3.38841e-16)
(0.811703 -0.206618 -1.30145e-16)
(0.574466 1.28349 3.27837e-17)
(0.490964 0.684775 -1.53563e-17)
(0.936816 0.437642 0)
(0.417735 -0.719694 -1.27773e-17)
(0.701803 0.208908 3.36912e-17)
(-0.173677 -1.22325 5.40555e-17)
(1.22382 0.329567 0)
(0.835636 -0.780543 2.09323e-16)
(1.4806 -0.239587 -2.41194e-16)
(1.30044 1.27817 1.13097e-17)
(1.69812 -0.0913407 -1.29221e-16)
(0.241861 -0.254544 0)
(0.747245 0.0444963 0)
(0.671734 -0.352832 4.33771e-17)
(-2.23552 -0.153519 3.32157e-17)
(0.0226043 0.309351 -5.49036e-18)
(-0.0314046 -0.791761 0)
(0.748475 0.843944 -7.61488e-17)
(-1.73222 -0.00776219 -2.23921e-16)
(-0.163228 0.190052 -7.78206e-17)
(0.317735 -0.456617 1.74142e-16)
(0.0824199 -0.364759 -7.98118e-17)
(1.07535 -0.0367912 -1.2585e-16)
(0.173783 0.2549 1.13337e-16)
(0.627565 -0.391221 2.56641e-17)
(0.0166291 0.121401 1.94465e-17)
(-0.313183 -1.05876 -2.57192e-17)
(-0.586012 -1.06059 0)
(-0.968707 -1.18103 0)
(1.94864 -1.04382 -2.12702e-17)
(1.48202 0.755797 6.34322e-18)
(2.06492 0.628858 1.27692e-16)
(-0.818189 -0.172978 0)
(-0.301458 -0.655774 0)
(-0.0420345 0.883714 1.94699e-17)
(1.29954 1.09127 2.98931e-16)
(0.17243 -1.46253 0)
(0.380342 0.367235 0)
(2.55821 0.857375 5.6705e-17)
(-0.0811191 1.31924 0)
(2.13127 -0.0602877 2.12421e-16)
(1.36024 -0.105178 0)
(0.646454 -0.78461 0)
(0.964503 0.290291 5.67911e-18)
(0.724129 0.855402 -1.32658e-16)
(2.20215 -0.311318 -2.30259e-18)
(1.45456 0.12628 -1.19427e-19)
(1.08846 0.82841 -1.02539e-16)
(0.611975 0.314331 1.27044e-16)
(-1.74641 -0.544345 0)
(0.382435 1.01822 0)
(-0.932877 -0.702139 -1.93365e-18)
(0.78097 0.0548286 0)
(-0.86731 -1.16221 0)
(0.315809 0.319527 -1.59658e-16)
(1.61864 0.401603 2.58192e-16)
(0.960998 0.195486 -1.62363e-16)
(0.879453 0.333752 -1.53906e-16)
(-0.255081 0.432572 3.72447e-18)
(1.59396 0.433629 -1.3918e-16)
(0.348058 0.37175 2.92137e-16)
(-0.94409 -0.172126 2.3049e-17)
(-0.578698 -0.638716 4.00199e-17)
(-0.0976904 -0.303195 -4.28576e-17)
(3.95338 1.86136 1.84509e-17)
(0.718032 -0.816112 -1.14709e-16)
(-2.239 0.51128 9.74669e-17)
(1.47835 2.51187 4.80977e-17)
(0.684187 0.0839119 0)
(0.679087 0.152077 0)
(1.15394 -0.336149 3.00358e-17)
(-0.127621 0.574135 1.0893e-16)
(1.67902 0.109915 1.2324e-16)
(-0.0579497 0.287898 0)
(-0.585732 -1.44722 0)
(-0.337041 0.0798887 0)
(1.70771 0.0740396 0)
(0.718234 0.0218009 0)
(1.57724 0.067475 -1.68486e-16)
(5.83892 2.27769 -3.84818e-17)
(0.522268 -0.44602 3.46948e-16)
(0.892155 -0.115252 -3.2438e-16)
(0.349349 0.297682 3.27912e-16)
(0.032387 0.496451 -5.05959e-17)
(1.99834 -0.640838 -2.33094e-16)
(0.183689 -0.424145 -8.68883e-18)
(0.750261 -0.517698 -7.8782e-17)
(1.70127 0.780787 -1.35198e-16)
(0.655668 0.199919 3.16145e-16)
(2.41683 1.58856 -7.93516e-17)
(0.379287 -0.575183 6.81818e-17)
(-1.4464 0.292202 0)
(0.716253 0.137549 2.72973e-16)
(0.7964 0.188745 1.4258e-16)
(0.615193 0.201613 7.11025e-17)
(0.329762 0.198215 -7.68163e-17)
(0.174791 0.918631 -2.64616e-17)
(-0.0474997 1.05912 -3.56091e-18)
(3.77587 -1.9092 8.48092e-17)
(0.779954 0.0728227 0)
(0.822192 0.886767 -1.73685e-16)
(1.89435 -0.405033 1.24025e-16)
(1.43676 0.423135 2.95935e-19)
(1.99952 -0.681639 -2.18864e-18)
(1.02749 0.14311 -2.80106e-16)
(-0.0395497 0.789007 1.62501e-16)
(-0.0409628 1.27099 1.00071e-16)
(-1.50121 -0.551038 -1.7819e-17)
(-2.26488 -0.239006 -3.06639e-17)
(0.815555 0.226032 9.66311e-17)
(0.170186 -0.947171 -4.53388e-18)
(2.37555 1.23725 0)
(0.981383 0.277381 -1.45852e-16)
(1.51265 1.72445 1.13852e-17)
(1.73308 -2.27683 -3.74307e-17)
(1.49385 1.85893 -2.68446e-17)
(1.38509 0.5345 -1.53208e-16)
(1.24122 1.01531 0)
(1.51772 0.244524 1.70851e-16)
(1.10128 -0.0695453 -3.24247e-16)
(0.366529 -0.14033 2.93883e-16)
(-0.916004 0.5165 0)
(1.36346 -0.788326 1.03581e-16)
(1.85542 -0.935374 1.20472e-16)
(1.03132 0.258573 8.23299e-17)
(0.552336 0.255402 1.53758e-16)
(-1.30162 -1.44282 -1.2758e-17)
(0.575547 0.57444 -3.07202e-16)
(2.03438 0.278416 5.0862e-17)
(0.326667 -0.443048 -1.10294e-17)
(2.98717 0.342411 -2.88543e-16)
(0.487938 -0.377618 0)
(0.603062 -0.605273 8.78256e-18)
(0.381015 -0.158887 1.49047e-16)
(-0.295599 -0.15017 0)
(-0.110023 -1.32638 1.26643e-16)
(1.10733 0.397114 0)
(0.698144 1.57454 -2.44069e-17)
(0.358302 0.102882 -1.54097e-16)
(2.54259 -1.61517 -3.70538e-17)
(2.22784 0.975795 2.38982e-17)
(1.1189 -0.850666 3.70539e-16)
(0.289797 0.316643 0)
(0.287257 0.109706 -2.34915e-16)
(0.398348 0.506365 -1.26766e-16)
(1.24718 0.608759 -2.04914e-16)
(1.15256 1.34299 1.63927e-18)
(0.104587 0.264967 8.95726e-17)
(1.63825 -0.822219 0)
(1.23779 0.111668 -8.04175e-18)
(2.10549 1.38698 2.46838e-16)
(-1.17925 -0.592954 -7.29522e-17)
(0.140948 -0.0112786 -1.3512e-16)
(2.03049 -0.806601 -9.4375e-18)
(1.63117 0.411796 3.23778e-18)
(-2.54036 -0.0961283 1.8847e-17)
(0.597641 0.139124 -1.66808e-16)
(-1.61454 -0.397348 -1.29485e-16)
(-0.114929 -0.291036 0)
(-0.243936 -1.15282 -3.32348e-18)
(0.799623 0.307612 0)
(0.636695 -1.15458 0)
(-0.0541623 -0.150389 0)
(0.649738 -1.20946 2.31561e-16)
(0.654781 -0.375235 -1.05039e-16)
(0.875928 -0.353731 -3.50802e-16)
(1.08914 0.126275 0)
(-0.0583284 -0.715403 1.07119e-16)
(1.76089 0.114563 -5.43624e-17)
(-0.129666 0.18841 1.05098e-17)
(1.31758 -0.0814127 -7.98364e-17)
(0.278837 -0.0498902 0)
(1.0227 -0.876052 0)
(1.64262 -0.149475 0)
(0.00158486 0.572365 -1.50344e-16)
(0.730409 -0.133848 1.50774e-16)
(-0.235244 0.130287 2.67353e-16)
(-0.416671 -0.239984 0)
(0.703348 -0.382204 2.50418e-16)
(1.80353 0.304512 1.03542e-17)
(1.01612 -1.04618 -2.89274e-17)
(2.43139 -0.771065 0)
(0.827765 0.263385 0)
(1.73213 0.149487 -1.74774e-17)
(1.92734 -0.889225 3.16505e-17)
(1.67612 0.214885 -7.22274e-18)
(1.58345 -1.28311 -3.81964e-16)
(1.10956 0.999948 0)
(0.13131 -1.04667 3.45946e-17)
(0.469069 0.266916 2.48572e-16)
(-1.18217 -0.389443 1.12233e-17)
(-0.736437 0.415351 -2.53165e-18)
(1.42759 2.10668 -2.80721e-17)
(0.875904 -0.114349 0)
(2.67693 0.691503 3.63394e-16)
(0.378833 -0.12331 5.09577e-17)
(1.07817 -0.173516 -8.02564e-17)
(1.89052 0.293084 1.67896e-16)
(0.769154 0.282686 2.25274e-16)
(1.1655 -0.448322 1.00228e-16)
(0.974301 0.312691 0)
(2.46515 0.340603 -1.54902e-16)
(-1.30531 -0.946383 -1.36647e-16)
(1.56581 -0.367515 1.29211e-17)
(1.12265 -0.28245 -3.84404e-18)
(-0.677249 -1.80523 -1.41747e-16)
(5.13856 -2.91769 0)
(-0.692544 -0.0430443 -3.3217e-17)
(-0.162831 -0.0454512 -1.89463e-16)
(0.586947 0.374195 0)
(0.294472 0.347693 1.69743e-16)
(0.0162655 -0.968688 1.09821e-16)
(-0.211449 -0.95413 -3.35074e-17)
(1.33755 -0.210222 -2.91914e-16)
(2.23897 0.643279 -1.67131e-16)
(0.457145 0.24688 1.69183e-16)
(0.29724 0.0829381 0)
(0.444045 -0.91732 -3.14775e-16)
(0.718454 0.818224 -3.74317e-17)
(2.40597 1.97903 -5.40468e-17)
(0.348738 0.178093 9.40127e-18)
(-1.23599 -0.515829 -1.24889e-18)
(0.489467 -0.47432 1.02671e-16)
(-0.192553 1.06531 8.68495e-17)
(-0.696597 -0.107777 1.8504e-16)
(0.702962 -0.369655 0)
(0.726434 -0.0407782 8.97489e-17)
(-0.0968341 0.694492 -1.17504e-17)
(-1.75029 -0.641869 7.90091e-17)
(0.398164 -0.140373 -1.76744e-16)
(1.20236 -2.91972 0)
(1.00623 2.48567 0)
(0.0296787 -1.03541 -5.33735e-17)
(1.82341 -2.796 4.42917e-17)
(1.87547 -0.903505 7.13702e-17)
(0.632482 -0.509722 -1.27941e-16)
(-0.407516 1.26679 -1.42341e-16)
(1.77644 -0.252354 1.28948e-17)
(1.24692 -0.20124 -3.09107e-18)
(-1.92427 -1.04752 1.52641e-16)
(0.520744 -0.677901 -1.53962e-16)
(0.799282 0.4791 1.95956e-17)
(-0.00822846 0.404204 -1.16881e-16)
(-1.06817 0.0885799 0)
(-0.874034 -1.12442 0)
(-0.0400311 1.24635 -2.0209e-16)
(1.03406 0.339761 -1.39765e-16)
(-0.664809 0.392199 9.1332e-17)
(-0.391658 0.0735387 -1.19896e-16)
(0.909226 3.73618 -5.49212e-17)
(2.43834 -0.179061 0)
(1.57488 0.0694548 0)
(0.400997 0.196793 1.88606e-19)
(0.913102 -0.736967 -7.31412e-17)
(1.50932 0.576945 0)
(2.17209 -0.915806 3.24429e-18)
(1.03669 0.693833 -3.96641e-17)
(0.963418 -0.400094 7.62743e-17)
(1.07476 -0.456284 -2.64043e-16)
(0.743458 -1.298 0)
(-0.322364 0.462225 3.39303e-16)
(1.30163 0.8663 0)
(-2.07617 -0.430432 6.44129e-19)
(0.664473 0.263313 1.32297e-16)
(0.0371726 0.292962 0)
(0.255088 -0.352628 0)
(0.640227 -0.299221 0)
(1.24801 -0.0630422 1.21788e-18)
(1.68201 -0.609169 -3.40868e-18)
(-0.178469 -0.270329 -4.93488e-18)
(0.250156 -0.537914 1.68888e-16)
(0.600113 0.440852 9.37536e-17)
(0.90616 3.71669 5.2848e-17)
(0.845012 0.455836 -4.09422e-17)
(0.513168 -0.305282 2.84785e-16)
(0.987637 0.049195 0)
(0.872199 0.272651 -1.56306e-16)
(0.508166 0.197445 -2.65411e-16)
(0.638461 0.167585 0)
(0.505046 -0.112989 8.60277e-17)
(2.26737 0.157246 1.6922e-16)
(0.683202 0.0817252 3.35473e-16)
(0.577535 0.198553 0)
(0.773404 -0.21607 1.80403e-16)
(-1.6352 0.178181 0)
(-0.0104164 -0.92788 -6.01046e-18)
(-0.0134472 -0.99658 5.56429e-18)
(0.0148868 -0.0750326 -1.4724e-16)
(1.12634 1.04973 0)
(1.89731 0.549258 8.70757e-17)
(-0.848294 -1.41231 0)
(1.9352 1.42632 -2.53985e-16)
(-0.0447161 0.117047 1.23224e-16)
(1.43352 -0.00443498 8.32408e-17)
(0.501634 0.398742 0)
(-1.61432 0.30494 4.26515e-17)
(-0.894272 -0.0155074 0)
(0.603812 0.591153 -1.32756e-16)
(-1.26004 0.0312314 6.2857e-17)
(-0.37821 -1.25172 -1.87461e-17)
(0.942329 0.471199 -4.45076e-16)
(1.61737 -0.0542825 0)
(2.48012 -2.00217 -1.826e-17)
(1.81966 1.41953 5.05301e-18)
(2.80426 -1.04563 0)
(0.462377 1.34906 0)
(0.156188 -0.312262 0)
(0.626396 0.221796 1.58787e-16)
(0.45474 0.298542 0)
(-0.398692 0.434327 -1.65012e-16)
(-0.177308 -1.72749 6.31498e-17)
(1.27202 0.170023 -4.74701e-17)
(0.636168 -0.0421671 -1.89884e-17)
(1.6469 0.198573 -9.44114e-19)
(2.47034 -0.337943 -7.40607e-18)
(2.23534 0.420089 0)
(0.198124 -0.0188898 2.85738e-16)
(-1.71176 -1.30153 2.05605e-17)
(-0.052396 -0.0359886 5.81054e-17)
(0.788578 1.91659 -1.73555e-17)
(0.571821 0.262042 -4.6964e-17)
(-0.244644 -0.13527 0)
(1.99348 0.985083 0)
(2.56785 1.39629 9.95779e-17)
(0.31395 -2.21854 0)
(-1.22529 -0.541211 0)
(1.60229 -1.3142 -3.02865e-16)
(0.710683 0.267189 0)
(0.327089 0.453851 -3.08021e-16)
(0.827198 1.07585 -1.25597e-16)
(0.712754 -0.473246 0)
(0.527299 0.0415306 0)
(-0.0152673 -0.188196 2.21957e-16)
(0.661278 -0.509516 0)
(-0.509605 -0.676366 -3.96339e-17)
(1.29664 0.450765 -6.80872e-17)
(0.345555 0.0678581 0)
(0.158291 0.299025 1.86017e-16)
(0.209842 0.235109 2.22958e-16)
(1.26304 0.144132 6.2629e-18)
(1.71613 -0.435233 -1.69435e-17)
(-0.265407 0.220958 -1.73474e-16)
(1.40771 0.431691 2.07021e-17)
(0.878785 -2.0157 -2.10364e-16)
(0.935754 -2.10482 1.08577e-16)
(0.130322 0.226813 0)
(-0.25158 -0.0199838 -1.81192e-17)
(-1.29116 -0.9483 3.13127e-17)
(0.40875 0.336722 1.57007e-16)
(-0.584178 0.742847 6.19491e-17)
(-0.957276 -0.860061 0)
(0.986272 -0.0868155 -6.64256e-17)
(1.40273 1.34173 1.88479e-17)
(0.409363 -0.85988 4.49559e-18)
(0.168438 0.108456 0)
(0.985529 0.938222 -1.05739e-17)
(-0.418546 -0.846157 9.25943e-18)
(0.25523 -0.998394 -1.90356e-16)
(2.06667 -0.73709 0)
(1.51345 0.387968 4.58127e-19)
(1.03996 -0.820497 3.30623e-17)
(0.925356 0.14688 -1.2215e-17)
(2.99152 -0.139222 6.16163e-17)
(0.165195 -0.920371 0)
(0.504782 0.185701 0)
(0.352636 0.306566 1.83842e-16)
(0.484204 0.169394 -3.1029e-16)
(0.058385 0.113951 -3.80097e-17)
(0.148806 0.205958 -2.5501e-16)
(-1.62981 -0.138341 0)
(-2.17689 0.121435 -1.2232e-16)
(-2.98231 0.279357 2.78114e-17)
(2.34293 0.0958058 -9.65497e-17)
(-0.823297 0.288321 -8.03825e-17)
(-0.0112932 1.07721 0)
(-0.0343271 0.192702 -5.09005e-16)
(0.566542 -0.117766 0)
(0.104668 0.268422 4.72774e-17)
(-2.05485 -0.224812 -5.80222e-17)
(-0.626721 0.785674 -1.93385e-17)
(2.1149 0.548002 8.04614e-17)
(-0.251655 0.668309 3.15166e-17)
(0.760239 0.867088 2.96086e-16)
(0.499664 -0.398788 2.11164e-17)
(1.67354 0.308493 -1.50455e-18)
(2.30638 -0.559603 -5.06515e-18)
(-0.426411 -0.268829 6.61136e-17)
(0.675952 0.209318 2.43892e-16)
(-0.720801 -1.30829 0)
(-0.116504 0.193212 -1.498e-17)
(0.618725 -0.277774 -3.08306e-16)
(1.56236 -0.294067 -1.19153e-16)
(0.645517 0.0539038 -1.56289e-16)
(0.318916 0.0979653 1.81176e-16)
(-1.6705 0.161027 -1.67221e-17)
(0.557539 1.4717 8.46083e-17)
(0.661403 -0.0305149 -1.6563e-16)
(0.563067 -0.0959078 -6.87158e-18)
(0.628013 0.258579 0)
(0.870199 -0.239429 -1.12896e-16)
(1.22893 -0.443869 0)
(0.529116 -0.524331 0)
(0.959917 -0.127613 4.1812e-17)
(0.63647 0.196542 0)
(1.3438 1.0018 -1.02912e-16)
(1.14319 -0.0744477 6.45782e-18)
(1.58221 -0.514284 3.67441e-18)
(-0.337534 -0.27239 -2.13604e-17)
(0.837996 0.515525 3.32645e-16)
(-0.329645 0.25852 1.41846e-16)
(-0.646812 -0.472523 2.70858e-16)
(0.914377 -0.930928 9.58259e-18)
(3.78314 3.48748 5.26064e-17)
(2.92452 -0.513311 1.24373e-16)
(-0.181732 -0.673484 0)
(0.778198 0.128543 0)
(-0.665366 -1.05347 1.45017e-16)
(-2.56699 -0.89102 -2.55363e-17)
(0.713901 -0.380252 1.99167e-17)
(0.918667 -1.26829 -9.4278e-19)
(1.10695 -0.587974 -1.32329e-17)
(0.197937 -0.408303 6.31078e-18)
(-1.72182 0.118213 -3.29302e-18)
(1.50613 0.537015 0)
(1.8116 0.822278 0)
(-1.33818 -0.326082 -2.30658e-18)
(-2.75831 0.726509 1.23987e-16)
(-1.30296 -0.998027 3.94219e-18)
(-2.05902 -1.20647 -5.23025e-18)
(0.736123 -0.461341 -7.70503e-18)
(2.54462 -0.696256 1.23532e-16)
(1.82259 -0.341618 2.40604e-16)
(0.658533 1.62101 0)
(0.56416 0.291121 -4.20213e-17)
(0.65974 -0.408799 1.5472e-16)
(0.655583 0.00450823 -1.95311e-16)
(0.634062 -0.454988 1.334e-16)
(4.82128 -2.08869 3.45332e-17)
(3.72187 -2.55466 -2.47498e-16)
(-0.286807 0.207369 4.97317e-16)
(0.455917 0.412752 1.59822e-16)
(-2.52324 -0.0387576 -1.55201e-18)
(0.379247 -0.222417 0)
(1.49611 1.18021 7.74421e-19)
(1.66445 -1.67514 0)
(1.47644 0.0411836 0)
(2.22314 -0.200992 0)
(-0.169835 0.715293 0)
(-0.619205 -0.894699 0)
(1.93818 0.460444 -1.46062e-16)
(1.79622 0.530288 2.92985e-16)
(0.581642 -0.0422259 0)
(0.390546 0.0615972 1.78018e-16)
(1.20838 -0.460321 0)
(0.705274 -0.292171 -3.32076e-17)
(-0.95481 0.0868845 -6.58027e-19)
(1.05249 -0.0481856 -1.57033e-16)
(-1.34695 -0.115911 1.19527e-16)
(2.0078 -0.319026 1.81624e-17)
(1.35856 -0.292824 -1.49953e-17)
(-0.285537 0.530625 0)
(1.8909 -0.427655 -2.34631e-17)
(1.31031 -0.0162838 5.10375e-18)
(0.574726 0.629172 0)
(0.606257 0.177172 0)
(0.573346 0.344268 4.07292e-17)
(1.74517 1.14531 0)
(0.910143 2.06967 0)
(-0.747128 -1.73133 -6.2677e-17)
(-0.196386 -0.447563 -1.70432e-16)
(1.12801 0.105411 -1.69643e-16)
(1.62901 0.34824 -4.25266e-17)
(1.31336 0.390754 -3.26051e-16)
(1.79964 0.243265 0)
(1.16714 0.0027538 0)
(2.24338 -0.619755 0)
(1.62224 -0.070841 3.24598e-17)
(0.424369 -0.245802 -1.56382e-16)
(0.408222 -0.124343 3.02274e-16)
(2.1662 2.29741 -2.50117e-17)
(-0.221828 -0.268362 3.08171e-17)
(1.79604 -2.46286 2.01076e-17)
(-0.345137 -0.162961 1.38382e-16)
(-2.38611 -0.142473 0)
(1.09462 0.399 2.64043e-16)
(-0.446226 -0.0544816 -1.89236e-17)
(0.245386 -0.626037 3.27174e-16)
(1.7062 -0.0903615 -7.44962e-17)
(-0.513729 -0.284932 0)
(0.740833 -0.379157 -6.54912e-16)
(0.564755 0.051701 8.2241e-17)
(1.19812 0.434865 6.11358e-18)
(-0.46278 0.411831 -1.28976e-16)
(1.04884 0.465537 2.95906e-16)
(0.215025 -0.288935 3.63854e-17)
(1.73195 0.212301 -1.69726e-16)
(-0.548566 0.0735133 -1.0746e-16)
(0.512116 0.256571 -1.79595e-16)
(1.51158 0.223562 -1.79037e-18)
(2.15867 -0.475033 -1.72691e-18)
(0.302978 0.881518 -7.48572e-17)
(-0.695068 -0.756214 -2.05855e-17)
(-0.31871 1.24152 -9.50365e-17)
(-0.61681 -1.36711 3.66413e-17)
(3.6471 1.53036 0)
(1.30471 -0.308031 -1.70622e-16)
(-0.443248 1.0705 -1.72944e-16)
(1.45852 -1.56296 -6.27174e-17)
(1.69415 -1.8003 0)
(1.43619 1.22794 1.42239e-18)
(-0.732859 -0.822465 0)
(0.293372 -0.523051 -1.15475e-16)
(0.101149 -0.183776 0)
(0.36494 0.781876 -5.60657e-17)
(1.48253 -0.327865 8.87912e-18)
(-0.576027 0.148468 1.37679e-16)
(0.633928 0.565924 9.24782e-17)
(1.68585 1.46253 5.2715e-17)
(0.717704 -0.337236 0)
(-0.239374 -0.0973103 6.45844e-17)
(-2.16216 1.27336 -5.54385e-17)
(1.59987 0.196626 7.49422e-19)
(2.333 -0.315597 7.21591e-18)
(1.18801 -0.00412906 0)
(-2.15297 0.0648912 -1.34559e-16)
(2.18062 -1.20536 -3.49832e-17)
(1.84906 -0.387821 -1.46853e-16)
(1.80407 0.385698 8.34405e-18)
(0.0291773 -0.808831 0)
(-0.612988 1.17806 2.67656e-16)
(1.68099 -0.191177 -2.50927e-16)
(-0.0235942 -0.450638 -9.16039e-17)
(-1.01082 1.57848 0)
(-0.722527 -0.0111066 -6.85787e-18)
(2.35879 -2.63548 0)
(1.80414 1.94624 0)
(1.16035 -0.192414 -2.84077e-17)
(0.819376 0.306727 3.90649e-17)
(0.853369 0.21342 -1.65809e-16)
(0.00569942 -0.458258 1.64719e-19)
(-0.632096 -0.430932 1.34559e-16)
(-0.00646733 -0.837243 -5.55538e-17)
(1.6018 -3.99952 -1.29822e-16)
(1.36197 3.33948 0)
(1.0318 -0.0401714 1.61292e-16)
(-0.227768 0.504781 4.88799e-17)
(-0.211722 0.0393574 0)
(0.952572 0.936858 4.58205e-17)
(0.270942 -0.36284 7.25276e-17)
(0.200859 1.18753 -3.57097e-17)
(2.21647 -1.56983 0)
(1.86347 1.09911 -1.55252e-18)
(-0.246162 -0.306475 2.57463e-17)
(1.3087 -0.241709 5.60194e-17)
(1.5222 0.188955 1.54913e-19)
(2.22923 -0.429387 2.84941e-18)
(-1.35475 0.449606 0)
(-0.242839 -0.27691 0)
(-0.668321 0.0585964 6.72581e-17)
(0.847929 0.160531 -3.30985e-16)
(2.24007 -1.4061 -9.28809e-17)
(1.7334 0.536545 5.15102e-17)
(1.1807 0.99328 -1.10097e-16)
(-0.242871 -1.01571 -3.18431e-16)
(0.323348 -0.388859 3.14773e-16)
(-0.0802489 -0.141463 0)
(-1.90176 0.0421237 0)
(0.285853 -0.683002 2.56936e-17)
(1.55998 0.16787 1.36779e-16)
(1.76481 0.13598 2.2606e-17)
(0.429468 0.218791 0)
(0.596305 0.196103 2.5924e-16)
(0.473836 -0.000910481 1.51562e-16)
(-0.26903 0.445529 0)
(0.767429 0.715818 -2.86545e-16)
(0.183143 0.800725 0)
(-0.252779 1.21126 0)
(-1.03771 0.344872 -2.02773e-17)
(0.0846034 1.26151 2.25979e-16)
(-0.323531 1.27214 0)
(-1.47571 0.993617 1.46934e-17)
(-0.250524 -0.149027 8.65926e-17)
(0.338348 0.904564 -9.94541e-17)
(0.471925 0.415588 0)
(-0.300765 1.06466 6.78788e-19)
(-0.281685 -1.52969 -2.25721e-19)
(1.42186 -0.27432 1.07312e-17)
(0.442942 -0.410154 0)
(1.65026 0.3868 -4.26888e-16)
(1.30052 -0.0941461 -9.21808e-17)
(0.173798 0.438149 3.19021e-18)
(1.77357 3.4842 7.64937e-17)
(-0.0352239 0.173364 0)
(0.629043 -0.0120484 3.14899e-16)
(1.53933 -0.0634521 1.54374e-16)
(-1.07013 0.252394 -6.25333e-17)
(-0.0575855 0.188809 8.31202e-19)
(1.74642 0.289033 -1.7102e-18)
(2.33222 -0.89195 1.07661e-17)
(-1.24446 -1.11238 -1.33924e-17)
(-0.259733 0.394702 0)
(-0.142437 0.141155 1.76953e-16)
(0.129416 0.147646 8.21887e-17)
(0.377109 -0.739913 -2.25753e-17)
(0.806581 -0.485544 0)
(1.14972 0.0981191 -1.64528e-16)
(-0.781895 -0.407761 -2.14576e-20)
(0.608402 0.53735 3.40144e-16)
(1.92748 -0.0981617 0)
(0.746815 0.127472 -3.4348e-16)
(-1.55989 -1.02352 0)
(0.104929 -0.120093 6.28567e-17)
(0.231209 -0.270909 0)
(-0.810641 -0.0221786 -1.00581e-17)
(0.642848 -0.290701 0)
(-0.419338 0.028427 0)
(1.31845 0.389753 -1.52911e-16)
(1.27788 -1.01295 -3.10387e-16)
(0.831771 -0.371322 1.05324e-16)
(0.228054 0.0137925 -6.03082e-18)
(0.44855 -0.146201 -3.29006e-16)
(-1.1219 -0.482767 2.25195e-17)
(1.36244 0.478703 3.29509e-17)
(0.516412 0.664598 0)
(0.201899 0.366621 1.74173e-16)
(1.60703 -0.210373 2.14706e-16)
(1.59348 -3.07112 -1.23523e-17)
(0.561995 0.091067 0)
(0.481921 0.827847 -1.69377e-16)
(-0.0478928 -0.0170855 0)
(-0.849425 0.500237 0)
(-0.138587 0.615815 0)
(-0.863026 -1.8334 -7.56613e-17)
(0.0834954 0.295083 -1.84684e-16)
(0.136962 0.260423 1.11292e-17)
(1.11343 0.230763 -2.51791e-16)
(1.53549 0.150534 1.85679e-18)
(2.29278 -0.241744 -4.73709e-18)
(-2.53366 0.772395 2.69409e-17)
(-0.567666 1.08888 -1.00629e-16)
(1.57284 0.536805 -1.48984e-16)
(1.91718 -2.41674 0)
(1.89335 -1.0203 1.38863e-17)
(1.5304 0.320382 -7.35057e-18)
(-0.0827349 0.0126404 -2.37258e-17)
(-0.262728 0.549979 3.14412e-18)
(1.0349 0.600261 0)
(1.04414 -1.22597 7.58159e-18)
(1.64761 0.821265 6.17959e-19)
(2.41796 -1.24451 5.9998e-18)
(0.281675 -0.436387 -8.28995e-17)
(-0.895574 0.962712 -2.53883e-16)
(0.705902 0.143743 2.54501e-16)
(-0.76136 0.147619 0)
(0.554272 0.74045 1.80419e-16)
(-0.787763 0.0345806 -1.34618e-17)
(1.01606 1.11327 -2.67894e-16)
(0.987872 0.0630897 5.73333e-17)
(-0.961916 -0.928279 0)
(1.31471 0.162665 0)
(1.80319 -0.4226 0)
(1.14013 -0.287788 0)
(0.505749 0.303128 8.17879e-17)
(-1.50259 -0.147746 -1.12579e-17)
(0.666824 -0.0441233 -1.77496e-16)
(0.283492 -0.0469821 1.63847e-16)
(0.75319 -0.00907347 0)
(0.484605 -0.577895 -1.39553e-16)
(0.823727 -0.22782 4.0397e-17)
(-1.35037 -0.718346 1.83729e-17)
(0.806714 -0.117636 0)
(1.89201 0.666521 1.63562e-16)
(1.06703 0.19772 0)
(2.74343 -0.230909 9.63608e-18)
(1.75658 0.145535 -4.32904e-18)
(1.33735 0.00689415 -3.25337e-18)
(1.02426 -0.101974 1.15763e-18)
(-0.529591 -1.42838 1.05554e-16)
(2.12696 -1.42771 3.71647e-17)
(1.62854 1.01078 -1.07262e-17)
(0.756376 0.263051 1.81004e-16)
(-0.0248503 -0.22491 0)
(0.0698408 -0.307591 -7.71299e-17)
(0.437049 0.938807 -1.47201e-16)
(1.83023 0.871441 1.11946e-16)
(0.592252 -1.2554 -1.16419e-16)
(1.33146 -0.278858 -1.08812e-16)
(0.378076 -1.08216 1.50258e-17)
(0.12131 -0.815752 0)
(1.68797 0.138206 0)
(1.69195 0.108596 1.33564e-16)
(2.03629 -0.260616 -2.04748e-18)
(-0.471867 0.392003 1.99061e-16)
(0.464369 0.626228 1.7114e-16)
(0.378802 0.206105 -3.31175e-16)
(1.58725 -0.470239 -4.06246e-16)
(-0.253671 -0.551262 1.39274e-17)
(1.6482 0.0992431 0)
(0.756873 1.1355 0)
(0.337634 -2.04416 -5.41942e-18)
(1.60785 0.295578 0)
(0.688449 0.375358 -7.12414e-19)
(0.156715 -0.113705 -2.42017e-18)
(1.99228 -0.184383 -1.74173e-17)
(1.31915 0.128975 7.43944e-18)
(0.0285465 -0.283749 0)
(1.92206 -0.905261 0)
(1.50303 0.540566 0)
(1.08797 -1.17232 0)
(-0.967426 -0.242593 0)
(1.22664 -0.605777 -7.27729e-17)
(2.57952 -1.28582 1.6295e-17)
(1.91759 0.805902 -2.764e-18)
(-1.27851 -0.0638515 -8.21721e-18)
(1.54172 0.227762 -1.86175e-16)
(0.526608 0.357732 0)
(1.39401 0.527286 2.65276e-16)
(1.31406 -0.149324 1.35785e-16)
(1.87899 -3.35407 -2.18826e-17)
(1.60339 2.79379 1.11885e-17)
(0.00895583 0.223176 0)
(-1.52159 0.933455 -5.16426e-18)
(0.945973 0.554712 1.51026e-16)
(0.656989 -1.06774 -1.24356e-16)
(2.35725 -0.834166 2.44706e-17)
(1.69489 0.527593 -4.63251e-18)
(1.88758 0.705142 4.67814e-18)
(2.61289 -1.08419 -2.78876e-17)
(-0.198213 0.0670822 0)
(0.698335 -0.770411 0)
(-0.382086 -0.0546176 -8.69114e-17)
(1.17775 -0.515996 2.47908e-16)
(2.0148 0.604928 -6.96357e-17)
(1.71248 -2.63618 8.10637e-17)
(1.39024 2.28164 -1.20379e-17)
(-0.935856 -1.89368 6.83133e-17)
(0.19349 -0.792992 -3.21819e-16)
(0.395604 0.151461 0)
(-0.237471 -0.879068 0)
(0.452878 0.267122 -9.6593e-20)
(3.05867 -1.30535 -1.95055e-17)
(0.308936 -0.520032 0)
(4.65832 -2.75669 1.05838e-16)
(0.124739 -1.07219 5.59496e-17)
(-0.41655 0.136923 7.92629e-17)
(1.10233 -0.396219 2.85851e-16)
(0.914461 0.590666 1.24487e-16)
(4.54357 -5.46379 -8.8051e-17)
(0.321908 0.313319 0)
(0.379801 0.302469 1.76091e-18)
(-0.374571 0.411864 7.39189e-18)
(0.581319 -0.301032 3.5874e-18)
(-0.678314 -1.42406 2.41209e-17)
(-0.15829 -0.937944 -8.18058e-18)
(0.44456 -0.144749 0)
(1.02176 -0.0708944 -1.2632e-16)
(0.50631 -0.0349773 0)
(-0.862315 -1.59658 -1.69274e-16)
(-0.262404 -1.17741 0)
(1.7027 0.269868 1.12615e-16)
(1.00529 -0.893401 5.51543e-16)
(1.61436 0.92763 -1.60911e-16)
(0.0198623 0.0481243 2.02392e-18)
(1.09091 0.633126 -2.4944e-17)
(-0.82604 0.98666 0)
(0.352877 0.405064 0)
(0.246601 -0.214661 0)
(-1.14402 -1.67228 -2.93002e-17)
(0.638127 0.551814 0)
(2.33143 0.438981 0)
(0.237926 -0.342108 0)
(-0.216046 -0.030281 0)
(0.696727 0.0268259 0)
(0.337526 0.922906 0)