/*--------------------------------*- C++ -*----------------------------------*\
  =========                 |
  \\      /  F ield         | OpenFOAM: The Open Source CFD Toolbox
   \\    /   O peration     | Website:  https://openfoam.org
    \\  /    A nd           | Version:  7
     \\/     M anipulation  |
\*---------------------------------------------------------------------------*/
FoamFile
{
    version     2.0;
    format      ascii;
    class       volScalarField;
    location    "0.15";
    object      p;
}
// * * * * * * * * * * * * * * * * * * * * * * * * * * * * * * * * * * * * * //

dimensions      [0 2 -2 0 0 0 0];

internalField   nonuniform List<scalar> 
2700
(
-1557.08
-15063.2
-3041.85
-15712.7
-8956.81
-12850.6
-11208
-7543.49
-12719.4
-8023.29
-12518.3
-7462.08
-11512
-4487.11
-14458.1
-3871.37
-3348.71
-14378.4
-15322
-2151.78
-12762.5
-9183.57
-6573.96
-6854.83
-15200.8
-1995.33
-12041.5
-6757.53
-7720.16
-14075.6
-12985.8
-2793.42
-15457.4
-2235.82
-15250.8
-11568
-7182.09
-13078.4
-7526.53
-13722.1
-4273.94
-8166.41
-13749.8
-15489.4
-745.953
-8027.74
-12605.2
-2836.18
-14367.8
-3843.21
-13033.2
-12878.9
-13815.4
-2226.96
-15784.8
-5637.5
-15253.1
-1661.28
-2936.58
-15530.9
-10931.8
-10471.7
-15021.8
-2300.52
-13723.8
-13555.4
-13751.9
-3530.45
-8987.05
-4682.83
-12745.4
-8337.7
-2812.55
-15613.2
-2327.67
-15084.5
-6619.61
-7918.35
-12868
-5829.88
-6847.62
-6613.14
-8877.45
-14205.3
-7408.87
-12331.8
-13487.2
-7150.99
-14663.2
-13937.3
-7103.52
-5963.57
-12440.3
-7418.06
-3399.88
-12035.1
-6273.57
-4031.15
-14742.4
-8261.59
-8906.5
-4471.37
-8778.4
-8327
-7313.71
-2342.65
-15914.6
-3785.55
-8683.95
-8184.11
-1677.01
-15441.1
-11100.6
-11629.7
-14791.2
-7400.37
-3451.77
-7740.86
-7265.97
-13546.2
-12419.3
-8493.41
-5996.5
-7274.86
-2515.85
-15123.4
-2818.31
-14371.8
-3716.13
-2744.12
-15195.1
-15647.7
-3230.08
-2426.2
-15219.3
-13428.1
-11930.5
-10119.7
-2401.15
-15667.9
-1430
-15372.2
-7945.04
-8083.76
-7557.97
-15043.3
-2722.98
-13135.6
-2073.47
-15395.5
-15144.2
-2833.27
-5836.05
-5336.83
-3453.25
-15421
-6291.84
-14908.6
-2724.68
-7473.93
-2155.53
-15294.8
-3546.43
-3546.41
-877.988
-15459.6
-10826
-8015.09
-11422
-6442.89
-1339.65
-15460.2
-14770.4
-14797.3
-14908.7
-3145.2
-15260.7
-2186.49
-406.576
-15473.7
-13594.3
-9936.57
-13893
-15534.8
-1864.31
-8168.22
-6867.49
-5521.27
-6742.28
-14076.6
-4409.08
-8133.62
-5296.17
-9689.7
-6388.48
-8576.9
-6839.89
-8119.8
-13154
-6670.21
-1916.76
-15575.6
-14835.9
-3031.94
-12419.1
-12564.9
-5929.49
-13370.5
-14308
-3816.98
-14750.5
-3011.3
-14462.6
-3586.24
-5117.74
-10338.8
-13483.5
-2132.8
-15708.7
-15350.9
-1182.13
-9502.72
-9422.61
-6036.65
-13667.2
-6082.64
-10394.6
-10873.6
-12623.6
-3376.54
-14874.2
-12569.5
-9302.5
-5669.55
-1847.4
-16012.1
-15455
-1253.36
-2485.97
-15786.9
-10071.5
-1692.5
-15303.4
-12601.5
-12741
-10119.1
-1914.36
-1654.38
-15935.3
-15591.5
-11880.2
-12441.9
-12229.8
-7660.07
-8124.05
-14246.3
-13733.1
-10268.7
-13984.6
-14270.6
-3139.87
-14784.3
-7476.57
-5550.31
-3150.52
-15850.7
-2485.32
-12156.2
-2896.92
-1590.48
-15298.3
-13438.5
-7594.96
-8256.12
-2256.13
-15191.4
-8538.3
-11938.2
-15687.3
-2778.47
-2445.92
-15214.3
-15611.1
-15400.3
-2262.86
-1810.38
-13616.8
-12080.9
-13227.7
-15415.3
-1730.23
-11500.9
-12313.6
-15253.3
-2380.18
-12586.7
-4086.73
-14700.3
-8152.65
-14572.6
-3224.14
-8002.02
-15329.4
-2437.03
-9606.48
-6770.02
-6768.96
-10036
-14254.8
-2156.71
-15937.4
-15397.5
-1278.11
-13134.6
-8271.96
-4159.37
-7570.2
-8336.52
-11282.1
-8277.26
-8799.36
-6364.47
-11555.9
-14648.5
-8480.45
-7409.46
-4948.09
-12237.2
-6410.65
-4501.2
-3311.35
-11698.4
-11363.4
-5302.81
-8641.77
-9852.82
-5403.78
-14405.1
-2051.21
-15354.4
-2446.29
-15123.6
-7733.12
-8102.77
-4660.92
-13738
-8094.61
-3806.33
-15644.9
-704.936
-14543.8
-14730
-5694.35
-13992.4
-14385.2
-7932.06
-9198.84
-3358.56
-8300.32
-3653.99
-15755.8
-15426.4
-850.301
-2221.84
-4886.65
-2190.09
-15808
-15510.5
-1403.93
-12126.4
-5016.93
-15495.6
-15724.2
-1137.85
-2094.71
-13412.1
-14630.7
-14510.3
-15162.8
-2380.43
-2499.76
-14719.3
-15335.6
-3338.61
-2180.58
-15756.2
-4823.87
-15203.6
-1685.07
-13509.4
-14474.1
-15248.5
-2056.19
-6876.15
-8487.59
-8110.19
-11540.5
-11110.9
-9419.68
-11130.2
-14338.3
-2322.44
-15359.7
-2076.1
-15474.9
-14793.6
-1406.81
-15687.8
-1314.82
-15813.4
-14237.6
-15091.5
-1621.49
-15807.5
-2322.97
-3427.54
-14100.9
-8899.57
-10764.9
-4856.96
-4157.65
-14323.5
-9654.32
-10501
-3511.49
-13150
-3322.85
-15563.2
-14998.7
-2320.28
-9669.68
-6491.13
-11688.7
-15477.9
-195.116
-14750.2
-8144.16
-10336.7
-2355.27
-15292.5
-15190.9
-2884.99
-15637.2
-3317.47
-11396.8
-8429.27
-8061.75
-2603.9
-15170.5
-15677.7
-953.193
-8297.61
-13578.6
-13915
-10343
-3388.97
-15519.5
-2051.07
-14865
-10683.9
-7186.6
-12846.2
-10716.3
-7346.99
-12896.9
-13967.7
-8908.92
-12712.6
-4999.76
-13285
-11419
-7700.78
-2143.19
-15259.1
-5356.75
-711.712
-15574.9
-4774.94
-13726.4
-15056.1
-2966.6
-12036.2
-6769.76
-4592.29
-13721.6
-6825.23
-12980.9
-10002.1
-5336.47
-13817.2
-14241.9
-6131.32
-8795.06
-9218.63
-15141.2
-2528.49
-15676.8
-183.772
-5553.74
-10388.8
-2775.13
-15471.1
-561.729
-15721.6
-2164.23
-15185.2
-2851.88
-13824.5
-15137.1
-5883.9
-15792.8
-906.541
-5672.23
-4861.45
-12742.2
-8303.15
-8701.64
-3473.61
-15587.3
-528.446
-11525.2
-11143
-5758.86
-14425.9
-4846.67
-14667.2
-3320.73
-3413.68
-11229.8
-4268.8
-15716.3
-290.46
-6635.59
-6605.09
-7169.15
-3070.55
-9666.71
-11761
-10296.7
-13960.7
-14193.5
-13325.3
-12920.7
-14149.2
-3450.73
-4271.95
-14379.7
-12904.9
-14523
-600.47
-15565.3
-6721.09
-13394.2
-8724.66
-5624.86
-8354.67
-8270.07
-14076
-5520.87
-6462.92
-10512.3
-7903.25
-8270.61
-4282.91
-13850.6
-5041.64
-14421.9
-8521.08
-5819.13
-9063.71
-11059.3
-15797.9
-446.462
-15704.6
-752.278
-3007.04
-15685.4
-10161.1
-2343.1
-15206.7
-11891.5
-9239.34
-12284.8
-14548.4
-7354.85
-11356.3
-6870.64
-1790.37
-11223.7
-7179.17
-8448.79
-8326.12
-9553.99
-9319.66
-13345.2
-15547.4
-3405.65
-15006.8
-2561.2
-12112.2
-15501.3
-15322
-2274.61
-1626.89
-13648.3
-9004.45
-14794
-3158.09
-8011.07
-8045.17
-2444.23
-14395.5
-3746.77
-8440.83
-8585.35
-3254.77
-15255.5
-8235.73
-12973.7
-2471.77
-12725
-10973.8
-13624.9
-8331.99
-15182.4
-5612.07
-11158.5
-13555.4
-13064.2
-5210.18
-14594.7
-5573.23
-8420.8
-8930.53
-15684.6
-2345.37
-15352.2
-2029.45
-12998.7
-8240.58
-8001.3
-3272.51
-14756.5
-14498.8
-13978
-12951.5
-9052.88
-11053
-7017.37
-13178.5
-1868.31
-15514.7
-15803.1
-2023.3
-3336
-14049.4
-11855.8
-3705.92
-13801
-14617.8
-4257.23
-14753.8
-4538.33
-15001.6
-2869.27
-2043.88
-2530.59
-15955.2
-15525.9
-7767.8
-14503
-2878.22
-10735.8
-15138.2
-3656.01
-10519.1
-3927.43
-15384
-3388.2
-14842.7
-9265.69
-7786.15
-11200.8
-13812.9
-10978.2
-5182.17
-13133.5
-14157.3
-12672.3
-4399.13
-13893.4
-2151.6
-16042.6
-1553.67
-15611.4
-11035.6
-9777.59
-3667.19
-11049.2
-15769.4
390.739
-3780.04
-14371.8
-9681.34
-3379.19
-14468.7
-3388.69
-13055.4
-11344.3
-10182
-11470.6
-15058
-2674.23
-8392.89
-12421.9
-15750.5
-883.336
-13543.7
-4752.22
-9908.73
-8037.02
-10042.1
-11568.9
-9297.63
-15830.3
-664.094
-9787.99
-9147.15
-72.8787
-15829.1
-4608.3
-12852.6
-11018.6
-13528.6
-8403.18
-8586.46
-8476.97
-14110.2
-1832.86
-15481.5
-11367.5
-2311.97
-15244.8
-2773.02
-15326.1
-9558.76
-1488.51
-15664.6
-10620.3
-9312.23
-7392.51
-11178.4
-4151.63
-13963.6
-9891.09
-15394.7
-1814.55
-2138.91
-15297.2
-14094.5
-4249.65
-6671.86
-13817.4
-12876.9
-13736.7
-12518.3
-13499.1
-15702.7
-1153.28
-5122.27
-13587.2
-3463.24
-3901.67
-13455.5
-12965.6
-3265.01
-15771.1
145.004
-836.1
-915.471
-15588.6
-15930.9
-14850.4
-10067.9
-8806.38
-14752.7
-3297.99
-13573
-13854.5
-2591.54
-8594.52
-2988.41
-15082.9
-6501.75
-13269.1
-14623.2
-6399.76
-15008.9
-11937.7
-14881.3
-5799.88
-14157.5
-3379.43
-2837.31
-12871.1
-8226.25
-5538.38
-8119.75
-8815.66
-14334.2
-10401.5
-14736.5
-14108.6
-8879.36
-15224.3
-9369.32
-13539.4
-10987.4
-12162.8
-11836.8
-8065.12
-2317.98
-8976.27
-11475.3
-7288.63
-12363.6
-15381.2
-1247.91
-9415.77
-5935.26
-7934.45
-2234.67
-15747.8
-5230.63
-10017.8
-3084.67
-15645.7
-15062.9
-2021.87
-5166.13
-10221.1
-15373.7
-2337.38
-11255.9
-10169.1
-8545.1
-10554.1
-5204.98
-6928.33
-13317.5
-15470.2
-2204.89
-6087.72
-6470.74
-15072.8
-1647.61
-2397.95
-15800.9
-8789.85
-8034.57
-1034.63
-15682.5
-9437.63
-1889.04
-15395.1
-10485.8
-13813.2
-14487.4
-4146.23
-11111.9
-10753.7
-13961.2
-3386.79
-12299.9
-14095.6
-8432.27
-8745.16
-9113.03
-5937.42
-8709.02
-10353.3
-9972.96
-15148.6
-3533.72
-14517.9
-2794.52
-8259
-8382.89
-10479.7
-10180.1
-9661.91
-13207.5
-14001.5
-11718.5
-8016.54
-9628.22
-8995.5
-10031.8
-8482.79
-3444.59
-14933.5
-3578.15
-6204.69
-11911.9
-7626.73
-10735.9
-8959.85
-8150.56
-13724.9
-14581.3
-8351.61
-14602.3
-2942.76
-3662.74
-15141.1
-9715.7
-15814.4
-115.054
-14765.9
-3878
-3402.07
-14252.1
-825.568
-15456.7
-7639.79
-11519.9
-6278.05
-1385.92
-15573.8
-14587.9
-2832.86
-5240.46
-9215.06
-13013.3
-5343.65
-14878.1
-8273.26
-3176.29
-3903.76
-15048.5
-3571.41
-8971.81
-13679.5
-10298.9
-4786.35
-14922.8
-3015.21
-9069.27
-8638.46
-12123.9
-12494.5
-8699.7
-9401.41
-6121.47
-10527.2
-4065.25
-14236.8
-9417.22
-3276.57
-14086
-3805.17
-5251.49
-4161.03
-8850.31
-14583.1
-12578.9
-12496.4
-13927.4
-8002.31
-7927.55
-8501.41
-8608.74
-6373.36
-7043.7
-4204.19
-13642.9
-13657.9
-10128.4
-7409.89
-7289.55
-6891.35
-12358.8
-12369
-12042.1
-12703.5
-12287.5
-13321.2
-5079.69
-14124.3
-14660.5
-8988.15
-7388.55
-9784.64
-6476.52
-5337.79
-6810.98
-4835.23
-8496.01
-1307.38
-15599.6
-11846.2
-7660.67
-5610.12
-9231.34
-8756.02
-12908.6
-10919.9
-7229.31
-10692.6
-11149
-9785.71
-12513.1
-7308.63
-12275.1
-8328.79
-14935.3
-6583.28
-13945.7
-10511.3
-12744.2
-9560.37
-10194.3
-8339.75
-13436.1
-11514.4
-10193.7
-5388.05
-8925.27
-13561
-2732.18
-7688.37
-9638.27
-8826.9
-8358.11
-13725.5
-12002.6
-5000.55
-11248.4
-9966.34
-9999.9
-8259.47
-2679.77
-14660.3
-15264.5
-3580.95
-14260.9
-5729.97
-5042.73
-14156.7
-4288.89
-13882.9
-7972.63
-11901.8
-7335.33
-4042.01
-14399.8
-3272.72
-11605.3
-12230.6
-15355.8
-2318.18
-15491
-210.305
-15302.7
-2214.26
-3378.75
-12882.7
-6882.06
-15467.2
-1718.58
-9276.57
-9547.77
-3864.85
-5946.43
-11946.8
-4997.19
-7834.25
-10371.4
-2823.2
-11934.6
-10999
-12071.7
-10398.3
-13597.4
-5522.88
-5752.1
-7699.85
-7086.05
-7622.2
-6801.11
-11519.9
-5981.31
-11736.6
-7517.83
-6656.13
-15533.8
-1542.11
-10648.1
-14358.5
-13930.5
-10490.2
-7047.93
-5111.14
-8419.24
-4759.37
-4582.1
-13449.3
-14686.3
-4151.26
-3333.23
-14082
-9785.09
-8372.46
-11018.5
-11681.1
-9474.28
15.8206
-15628
-11361.5
-11662.7
-4874.64
-4143.65
-9615.62
-15420.3
-1912.9
-3785.72
-15533.4
-15060.2
-3295.2
-13136.8
-9390.72
-8848.53
-12286.9
-12323.9
-1738.24
-15387.2
-13269.8
-1341.78
-868.107
-15728.2
-15506.3
-4128.66
-12996.7
-8684.83
-14458.4
-3380.67
-1024.81
-15678.3
-15425.7
-2141.27
-4444.2
-2450.13
-15278.3
-10015.5
-1157.92
-15660
-14145.2
-7810.59
-5190.72
-6271.15
-15095.6
-1908.61
-2966.63
-15382.6
-9574.1
-5580.4
-8919.42
-14455
-14118.3
-6952.25
-4005.65
-1530.82
-15206.7
-15817
-2121.81
-12624.2
-3386.07
-14130.5
-4226.74
-14525.6
-10115.5
-4993.51
-7449.68
-10712.5
-14084.5
-8389.49
-6082.76
-6151.54
-15063.1
-2650.46
-6592.54
-5296.96
-4447.13
-13696.9
-8805.94
-4999.84
-14287.5
-8751.94
-8380.28
-12983.3
-14778.7
-3249.16
-3363.55
-10523.8
-13765.3
-13249.4
-13075.8
-9477.1
-9698.2
-13610.1
-13557
-5645.8
-13830.8
-15784
-544.384
-13682.7
-12887.6
-9446.02
-8356.72
-7564.74
-12693.7
-11037.9
-14542.7
-14954.3
-10512.1
-10997.7
-6440.34
-4728.76
-8597.13
-13994.4
-6059.81
-3667.03
-14719.3
-14639
-8287.4
-8064.77
-3713.57
-15661.6
-953.779
-5717.72
-5378.56
-3697.6
-14677.1
-11199.7
-11189.7
-13147.9
-9384.02
-13654.3
-6387.89
-6069.94
-15430.9
-1674.3
-14466.4
-15149
-2253.38
-5428.46
-14871.7
-3015.46
-15068.9
-2504.1
-4206.52
-10059.1
-9506.57
-3933.94
-336.139
-15948
-5652.71
-5724.22
-9258.75
-14448.5
-10733.3
-8244.99
-3454.99
-1214.63
-15484.9
-14770.9
-9132.43
-13464.3
-3333.41
-14820.4
-13877.1
-7059.73
-10019.7
-12563.2
-5924.41
-14723.8
-9004.06
-9155.48
-10790.8
-13561.7
-13175.4
-15091.1
-2744.81
-10739.1
-9191.55
-14430.5
-9709.24
-13510.9
-15255.6
-2170.27
-9798.84
-14266.7
-7630.9
-5041.59
-7225.44
-10125.9
-3087.31
-14963
-4266.22
-14786.7
-2782.56
-15345.1
-8237.44
-12690.3
-12762.4
-3272.17
-15692.5
-1102.81
-1449.38
-15535.5
-10831.6
-5437.4
-5347.24
-14626.8
-13790.5
-13318.1
-13456
-14080.2
-3553.7
-14146.7
-13337.7
-4873.26
-5694.22
-14263.9
-5241.37
-12849
-4391.23
-14748.6
-13221.4
-5577.53
-15466.3
-1748.73
-11042.8
-11081.2
-3727.79
-4024.56
-14847.4
-13329.6
-11315.9
-14776
-3178.31
-11476.1
-13006.1
-3686.76
-15065.3
-2908.37
-14811.9
-8117.2
-11781.4
-6469.44
-12084.7
-6877.57
-7889.19
-8188.01
-7290.24
-12965.4
-7240.11
-12774.8
-13619.9
-12686.5
-12425.2
-15290.6
-2943.84
-2257.12
-15240.7
-2875.11
-15456.9
-2172.99
-14797.5
-3095.82
-15299.9
-2363.61
-14756.7
-3976.59
-9553.71
-8117.61
-6694.44
-15431.9
-1722.59
-10564.5
-15663.2
-981.203
-8399.57
-10380.5
-15651.9
-1423.24
-13870.2
-11081.9
-5698.21
-3303.76
-15252.9
-9116.72
-9201.81
-15735.1
-2449.22
-15333.7
-1630.46
-6173.51
-15450.5
-1763.34
-12757.2
-5298.41
-3335.61
-8442.96
-8217.02
-3574.24
-8031.73
-11783.4
-3450.27
-14693.9
-12777.7
-6165.89
-3288.52
-14770.9
-2362.32
-15390.2
-11172.2
-10817.6
-12378.6
-8610.23
-12830.6
-8165.96
-15073
402.056
-15955.9
-2587.76
-3711.26
-15127
-15106.9
-2548.53
-8786.43
-8473.94
-11113.3
-13004.3
-11264.4
-4648.39
-7697.75
-5965.04
-4132.47
-8625.54
-6322.29
-12508.1
-8395.99
-14382.2
-15876.5
662.629
-3146.12
-722.513
-15623.8
-14856.3
-3953.91
-1332.72
-15744.7
-9993.8
-8806.54
-5425.05
-13110.6
-11157.1
-9701.08
-13909.5
-6254.72
-559.061
-15740.1
-12263.1
-12562.6
-10897
-12304.7
-4549.75
-12589.2
-7697.03
-12097.1
-10109.5
-4291.15
-15817.3
17.8793
-3117.19
-14872.8
-15345.8
-2350.47
-13655
-13039.6
-9863.62
-9378.9
-1631.22
-15598.7
-14980.6
-2634.73
-6290.44
-11238.4
-3528.2
-14859.2
-3021.86
-12861.5
-14289.2
-4189.88
-14295.2
-7893.08
-14784.8
-3176.96
-9217.8
-3961.4
-9533.26
-10376.7
-12539.3
-6357.13
-14125.5
-8291.76
-6020.12
-13333.5
-11779.8
-12848
-5043.81
-13050.1
-5649.45
-13905.2
-11388.9
-13754.5
-6287.81
-11086.1
-8589.04
-10676.7
-10020.6
-6850.46
-13609.9
-13483.2
-8521.79
-9689.8
-4858.04
-13571.9
-1408.67
-13689
-15488.7
-1271.05
-15518.6
-6550.69
-11939.7
-15007.4
-2991.59
-2280.88
-15218.7
-8626.94
-10045.4
-3214.13
-14719.2
-5336.88
-10030.7
-2961.52
-14785.7
-8778.48
-13525.3
-8504.23
-15864.2
-634.971
-549.839
-15367.3
-15883.3
-870.355
-721.93
-15386
-7318.79
-14088.5
-3481.38
-14313.2
-4263.99
-10603.8
-8349.88
-9508.15
-13739.4
-10123.3
-14015
-3776.39
-4577.2
-14689
-2572.28
-8604.2
-13096.8
-13124.4
-14268.4
-6702.66
-8013.98
-2082.61
-2610.16
-15861.4
-15446.9
-3010.5
-14911.1
-5433.29
-5955.77
-6341.03
-14001.8
-8222.29
-14004.6
-14137
-15280.1
-2149.14
-13918.6
627.356
-15879.9
-15666.5
-738.121
-14815.6
-3166.31
-11712.2
-9661.81
-9518.71
-7754.24
-14818.6
-7543.5
-6559.23
-1634.36
-15554.6
-7174.5
-6148.37
-4033.01
-1214.69
-15692.4
-8553.32
-13246.5
-2777.73
-15045.4
-14419.5
-13218.9
-7993.27
-14105
-8664.08
-12802.8
-10675.5
-10564.3
-15533.6
-844.724
-8042.34
-7297.74
-7574.5
-12855
-9058.36
-3598.68
-10278.4
-11796.9
-10389.6
-8862.49
-9126.3
-15414.5
-1098.44
-2146.97
-15779.3
-15603.8
-1419.2
-2366.96
-15252.8
-8627.17
-8593.09
-9821.16
-11693.1
-7993.13
-10558.2
-3366.98
-12173.4
-3031.84
-14770.6
-7755.73
-3448.15
-14589.2
-5148.76
-10545.9
-10070.6
-8610.35
-10826.3
-14209.1
-1879.05
-15129
-15688.8
-2376.84
-5396.21
-14028.1
-11066.3
-2511.37
-2510.08
-9872.05
-13746.9
-3220.71
-14809.2
-11439.4
-13139.2
-6053.03
-12392.9
-6635.4
-15488.7
-692.185
-13477.9
-14142.3
-5401.83
-5855.23
-14327.7
-13974.8
-4582.3
-4933.44
-13862
-14163.4
-15482.1
-1527.21
-13731.9
-11268.4
-10226
-6212.34
-15308.6
-2434.63
-274.03
-15882.2
-13173.1
-10526.2
-13631.1
-13678.8
-15180.6
-3753.6
-5424.07
-14611.7
-2811.07
-3149.69
-11066.6
-2958.37
-10886.3
-15158.9
-3788.4
-5613.3
-4604.89
-14589.9
-2940.96
-12265.9
-7339.34
-9008.57
-12032.2
-5939.2
-14594.6
-3775.19
-12785.6
-6228.36
-15629.8
-2598.09
-10192.3
-14991.9
-1907.78
-8360.5
-11971.7
-7795.15
-793.988
-15640.3
-7263.18
-10905.5
-11190.4
-12209.2
-3093.01
-15460.5
-2286.61
-15049.9
-15287.3
-9747.85
-12301.4
-5770.08
-7170.14
-9239.81
-8916.95
-9976.22
-10487.9
-15469.8
-1002.91
-1616.46
-16052.3
-15137.5
-12481.6
-13714.3
-15208.2
-4096.33
-15616
-2169.43
-3839.4
-1329.38
-15458.6
-7280.47
-12955.4
-15581.8
-778.063
-13574.5
-13820.3
-15413.8
-1693.37
-2969.64
-14613.3
-15059.7
-3726
-14083.1
-3500.33
-2984.58
-3479.2
-14699.9
-1334.54
-1239.34
-15393.1
-15705.7
-12601.9
-6630.34
-11270.8
-11010.3
-5649.59
-12893.2
-10879.4
-5647.7
-9756.87
-6371.58
-6526.22
-13829.1
-3459.71
-14304.9
-5324.67
-13521
-8872.59
-14334.7
-13444.9
-6766.3
-6324.56
-15340.4
-1831.07
-4789.24
-3264.32
-10022.4
-6351.56
-6968.69
-10112.6
-15532.5
-803.277
-5206.55
-10063.6
-6583.37
-4687.4
-13215.2
-5538.21
-248.2
-15710.1
-12984.6
-13877.4
-1739.98
-15447.6
-10359.3
-14160.8
-5830.59
-14745.9
-15386.3
-2420.34
-13291.1
-14762.9
-1889.11
-15357.3
-6269.46
-13325.5
-14897.5
-3936.15
-14328.7
-3165.58
-12441.7
-14557
-2874.29
-6217.74
-14390.6
-11372.5
-15292.8
-2829.13
-10497.1
-2016.1
-9449.33
-4850.57
-5793.23
-9842.34
-7458.69
-5930.53
-5515.11
-12538.9
-11306.7
-11985.9
-13828.8
-13318.8
-12815.5
-10882.2
-6346.93
-11685.9
-14250.2
-3403.53
-14050.4
-3898.78
-14811.8
-3120.63
-14419.6
-5031.71
-10295.6
-9642.34
-4372.29
-2738.22
-15068.5
-5655.81
-1344.31
-15568.9
-5961.31
-10568.2
-3831.98
-11927.7
-13667.2
-13339.5
-2528.71
-15225.5
-9035.61
-7932.69
-7848.12
-11554.1
-10722.8
-13441.7
-15105.1
-3576.53
-6039.79
-14562.1
-2870.7
-15035.9
-12214.4
-6182.89
-10153.8
-14672.8
-7663.49
-2947.56
-7100.72
-13067.9
-13239.1
-12886.7
-3264.58
-14540.9
-4912.47
-6432.54
-7096.25
-6630.92
-9163.83
-14661
-4296.55
-12908.3
-3588.56
-14083.6
-10558.2
-15740.3
-1943.48
-15465.9
-1216
-3166.25
-14732.5
-11917.1
-8932.6
-12822.8
-14769
-13877
-3891.33
-15058.9
-4199.43
-14924.2
-3004.04
-14408.9
-14590.8
-3281.64
-14273.3
-13492.4
-11349.4
-8951.65
-3461.24
-10764.9
-3698.39
-10767.6
-5639.73
-14780
-3822.32
-14313.5
-12942
-5353.61
-13051.3
-5269.09
-3825.38
-9412.36
-14252.1
-6198.25
-1797.64
-15102.7
-15685.8
-2337.8
-13149.2
-15907.3
-25.106
-10592.3
-11023.8
-3294.71
-14872.8
-14069.2
-5172.68
-6338.05
-5889.23
-14360.7
-8102.01
-8756.14
-11233.5
-10106
-10773.2
-3036.75
-14521.2
-14889.9
-9006.33
-10445.3
-11269.9
-13338.4
-3696.87
-14660
-13727.7
-7118.65
-12162.2
-6323.16
-15627
-787.712
-6193.75
-16171.6
-1428.49
-1307.2
-16251
-15717.7
-564.137
-12972.6
-7225.12
-2277.03
-15351.4
-14108
-5180.17
-9524.71
-4427.66
-13804.7
-15136.2
-1514.57
-7136.71
-15739.6
-2247.83
-14318.5
-13301.2
-10055.7
-15824.2
-326.959
-3573.42
-6638.23
-6823.78
-5263.06
-5266.33
-13666.3
-1721.76
-15562.7
-13231.6
-12897.5
-13275.7
-4845.35
-8754.67
-10900.8
-8721.21
-13797.5
-2976.7
-3411.87
-8561.92
-2145.81
-15840.7
-15388.1
-1161.53
-9224.33
-15758.1
-2515.1
-4390.94
-1404.78
-15183.9
-12937.9
-10565.2
-10009.6
-13787.6
-4560.43
-9900.56
-14083.5
-14419.4
-15609.9
-15366.6
-1897.15
-2403.42
-3929.9
-13201.3
-13869.3
-5122.53
-5734.2
-14026.4
-13452.9
-15558.7
-3158.22
-2026.02
-14944.4
-9265.82
-14942.2
-4384.58
-13009.1
-15611.2
-3254.52
-1932.44
-14903.1
-8951.75
-14887.8
-3648.39
-14714.5
-3152.35
-14789.4
-4255.29
-14499.4
-3294.68
-10970.4
-14012.2
-2274.2
-15249.6
-12559.1
-12113.1
-10177.8
-12999.3
-15186.6
-3968.29
-15156.4
-15678.6
-915.747
-15399.1
-2472.72
-4641.51
-14775.9
-12094.2
-4046.67
-15454.1
-12026.2
-14957.4
-3517.95
-9635.81
-10644.5
-8649.42
-7716.31
-8888.98
-1474.44
-15437.9
-13889.7
-12662.4
-15422
-1576.61
-2032.78
-15330.3
-14981.9
-2976.28
-7936.68
-7822.45
-12787.8
-4356.18
-15292.4
-13525.7
-6263.53
-14764.1
-3816.79
-6868.34
-14536.8
-4421.8
-10558.2
-13032.3
-5186.25
-13841.6
-4093.79
-11647.4
-7131.42
-5037.59
-11268.3
-2299
-14765.1
-3056.37
-15424.3
-15546.3
-1755.69
-7924.12
-1964.93
-15390.2
-4394.11
-13423.5
-3917.32
-13909.1
-5407.55
-6126.6
-10477.7
-4888.64
-1937.17
-15458.4
-13950.3
-5585.15
-12280.6
-12177.7
-4608.1
-13779.6
-12751.4
-11588.2
-4805.45
-13570.1
-2698.98
-5666.82
-14457.9
-11297.5
-4761.69
-13832.2
-5052.02
-13849.3
-13545
-2703.85
-14261.6
-845.813
-15800.6
-887.716
-15748.8
-7973.06
-15782.6
-413.667
-12750.1
-12302.9
-13795.2
-13841.8
-13945.7
-12878.4
-11655.9
-8668.61
-9407.71
-3735.33
-8540.01
-8540.21
-13293.8
-12631.2
-12393.5
-11060
-14293.3
-9126.9
-3407.13
-1814.14
-15420.2
-10164
-3775.17
-1397.89
-15602.5
-14978.2
-3487.13
-2732.05
-14705.8
-5536.14
-14283.3
-3914.38
-3419.84
-15519.4
-15006.3
-7677.45
-1390.38
-15438.8
-15883.1
-1249.7
-14059.2
-6433.66
-14308
-5965.13
-13426.4
-7082.44
-10202.7
-13858.8
-6033.19
-10247.8
-12727.8
-14031.1
-5923.94
-1752.52
-15887
-11335.2
-811.893
-15618.4
-8405.24
-9723.7
-9497.22
-15776.4
-846.352
-11530.4
-11981.5
-11557
-11758.8
-8178.39
-7914.87
-11234.9
-11652.1
-15509.3
-1612.89
-1058.74
-15668.9
-557.437
-15692.9
-9769.07
-11580.2
-9915.77
-6767.19
-6822.26
-14977.2
-14654.5
-12936.2
-11116.3
-11151.4
-12324.3
-11884.5
-11811
-12225
-9142.48
-2630.07
-8098.93
-13042.8
-13052
-15204.3
-9848.65
-8727.59
-3384.24
-12390.6
-6302.96
-14103
-5631.42
-13161.3
-6406.12
-5888.47
-2909.17
-14977.3
-3134.13
-2270.51
-15180.3
-8446.7
-14887.3
-3006.45
-14734.6
-3812.35
-14443.2
-14213.5
-10091.5
-13066
-6558.97
-8804.22
-107.982
-15881.3
-8127.7
-6878.61
-6400.08
-12110.6
-15336.1
-15103.8
-6656.83
-5579.33
-7817.05
-7138.69
-12148.3
-7240.08
-11577
-7560.77
-10093.4
-14963.5
-2664.99
-14749
-3035.77
-14316.3
-4318.49
-2587.09
-15656.8
-10258.8
-15109.2
-1810.58
-13050.4
-9984.02
-8643.31
-8160.02
-14040.4
-7926.07
48.5517
-15924.5
-13766.8
-12270.9
-11974.8
-1830.99
-15724.6
-15570.7
-1217.63
-8999.67
-10465.6
-2746.69
-3052.89
-13597.6
-12220.1
-10910.9
-9757.18
-13732.5
-15544.2
-1749.06
-1765.94
-15536
-15464.7
-1775.49
-64.2069
-15954.5
-9233.53
-14149.2
-5700.41
-4686.13
-13557.9
-3864.15
-6918
-7832.41
-4610.98
-5856.72
-6692.02
-12370.4
-14179.5
-3821.12
-14977.4
-2767.62
-12081.2
-15783
-694.939
-12893.6
-15558.7
-1559.1
-4103.22
-12348.8
-1982.06
-15352.1
-11318.7
-3966.98
-4360.4
-1350.92
-15577.5
-12084.7
-15533.2
-1471.83
-5945.91
-1844.69
-15595.6
-1640.36
-15639.2
-14383.4
-14341.5
-8330.11
-14424.2
-13989.8
-10365.3
-1244.03
-1404.81
-15884.5
-15488.2
-2704.7
-14913.6
-11342.8
-5663.18
-7281.32
-13438.8
-13046.7
-15298.4
-15151
-14366.9
-6401.12
-6309.75
-15313.3
-1839.82
-14348.9
-15417.1
-15254.3
-1920.06
-1300.08
-15334
-15775.1
-1540.51
-15025
-2673.77
-2136.67
-4001.31
-10779.6
-9669.97
-3617
-7639.32
-11738.4
-12240.7
-7961.15
-4609.78
-6409.62
-6758.67
-7273.39
-9063.16
-9117.18
-9563.59
-9751.25
-2849.63
-13340.5
-3230.15
-7782.69
-7501.77
-6301.67
-12621.1
-12654.3
-9806.48
-6691
-3892.14
-15480.1
-2822.07
-8199.51
-2071.04
-15238
-15433
-2856.98
-13192.4
-2194.02
-15192.1
-2348.75
-15306.9
-10300.6
-10087.1
-11900.8
-15251.3
-15693.5
-3457.34
-2980.87
-3926.45
-3883.01
-7519.84
-7930.8
-4932.03
-12386.9
-11682.1
-7922.45
-13662.7
-15472
-2355.69
-5473.89
-4446.76
-13495.2
-13148.5
-8349.8
-5381.43
-5940.89
-7208.3
-12495.9
-8261.29
-8207.95
-11748.8
-6609.98
-11811.1
-11615.4
-2820.05
-15133.4
-6381.71
-13783.3
-6807.54
-13913.1
-5452.22
-12969.3
-5866.13
-12672.5
-9783.34
-15676
-1511.19
-15579.2
-8442.48
-1781.33
-11173.4
-13487.4
-14167.5
-8421.37
-13920.8
-11262.1
-10817.7
-6073.24
-8629.84
-8106.9
-7487.52
-8651.38
-9315.5
-10245.7
-2842.34
-14911.2
-3763.08
-14392.5
-8643.49
-14266.3
-10952.2
-10760.6
-6704.57
-3702.05
-15126.4
-5785.54
-14439.2
-2858.13
-5393.6
-12741.7
-7279.06
-7028.25
-8494.58
-14068.5
-9937.84
-7143.33
-2550.4
-15120
-9958.52
-5114.05
-6898.51
-14198.5
-14334.5
-8445.24
-7658.84
-8147.67
-14093.3
-11522.6
-13299.2
-8095.64
-9614.67
-5121.99
-8515.48
-8897.9
-14768.8
-15647.8
-2716.51
-15157.7
-3116.56
-4559.82
-4514.56
-8097.72
-8913.53
-923.754
-15384.9
-790.266
-15862.7
-8214.09
-11229.3
-11826.5
-1783.65
-15718.3
-2077.48
-15216.9
-10462.3
-8017.63
-8427.75
-5306.43
-10819.1
-13175
-8071.61
-8020.87
-3226.42
-15359.6
-15256.7
-1268.74
-1033.25
-15730.8
-14713.7
-2417.31
-14172.3
-9608.89
-2976.63
-15179.2
-2133.36
-15326
-12466.4
-12367.9
-12708.1
-13074.1
-11615.7
-5255.11
-7807.08
-9367.57
-12260.3
-8292.42
-11252.4
-13853.6
-4089.77
-12458.2
-12227.9
-4964.33
-14248.3
-13807.3
-13643.6
-13385
-7430.07
-14364.8
-14490.3
-12056.4
-8394.4
-8428.63
-12787.3
-10610.5
-12944.3
-12718.4
-8166.79
)
;

boundaryField
{
    frontandback
    {
        type            empty;
    }
    simetry
    {
        type            symmetry;
    }
    inlet
    {
        type            zeroGradient;
    }
    outlet
    {
        type            fixedValue;
        value           uniform 0;
    }
}


// ************************************************************************* //
