/*--------------------------------*- C++ -*----------------------------------*\
  =========                 |
  \\      /  F ield         | OpenFOAM: The Open Source CFD Toolbox
   \\    /   O peration     | Website:  https://openfoam.org
    \\  /    A nd           | Version:  7
     \\/     M anipulation  |
\*---------------------------------------------------------------------------*/
FoamFile
{
    version     2.0;
    format      ascii;
    class       volVectorField;
    location    "0.15";
    object      U;
}
// * * * * * * * * * * * * * * * * * * * * * * * * * * * * * * * * * * * * * //

dimensions      [0 1 -1 0 0 0 0];

internalField   nonuniform List<vector> 
2700
(
(9.0314 -11.8426 8.55053e-16)
(11.5371 12.2475 1.01808e-14)
(26.5468 22.1757 -1.00175e-15)
(-1.80135 -5.08274 -5.07768e-15)
(-16.3692 -3.22208 6.50384e-15)
(22.985 14.9569 1.26637e-14)
(-6.47524 24.2041 6.32745e-15)
(17.3806 18.8208 -2.25964e-15)
(23.3968 -6.27005 -7.48338e-15)
(-39.3462 8.5874 9.81722e-16)
(18.2209 -5.0711 4.13756e-15)
(-17.4899 -15.8446 2.0694e-15)
(-26.5757 38.3734 -3.28717e-15)
(-3.78177 12.155 0)
(5.58145 20.1083 -7.23643e-15)
(5.98627 -15.6271 8.52191e-16)
(9.65927 11.5405 -1.64798e-15)
(23.388 -18.6714 4.47186e-15)
(11.2532 -16.2161 1.45693e-14)
(22.4801 -29.9802 7.34389e-16)
(-4.58462 6.88869 8.02157e-15)
(-5.03752 21.1241 -3.30065e-15)
(12.5305 -33.0207 -1.13574e-15)
(14.1451 -31.3394 0)
(6.52851 1.1888 0)
(-23.0405 1.25704 -6.82555e-16)
(12.1914 -6.19273 4.52638e-16)
(22.5121 8.62766 0)
(12.7991 5.16146 0)
(30.7926 15.5164 0)
(11.442 -3.73274 -8.09406e-15)
(13.9125 9.80388 2.81039e-15)
(-17.9898 3.75704 5.07627e-15)
(-5.37013 -8.61307 6.07716e-16)
(0.427132 0.19671 -4.89454e-15)
(8.54554 24.4603 0)
(18.7857 -32.7562 0)
(16.6928 5.91864 -2.07258e-15)
(-2.82509 -12.9262 0)
(-2.72484 -22.6326 -4.13659e-15)
(48.4503 25.0071 -5.82094e-16)
(39.0088 14.2981 0)
(-0.428247 -5.26825 -4.24398e-15)
(0.535787 -0.643125 1.33912e-14)
(47.5458 1.89023 -3.79405e-16)
(-5.91509 27.8941 0)
(11.1676 -25.0412 0)
(73.6028 -19.3628 1.75843e-15)
(42.5637 17.144 -1.22724e-15)
(63.7965 14.0205 -2.73375e-15)
(-3.15397 -7.24909 4.14205e-15)
(-9.81524 -12.3488 -3.83245e-15)
(28.3363 13.8249 0)
(-24.1071 -5.3752 -1.21556e-15)
(-9.17368 4.5647 -9.44086e-15)
(18.6329 9.94846 -3.46178e-15)
(-6.40843 -3.5843 2.72289e-14)
(-14.488 2.91359 -1.56591e-15)
(-27.5232 8.34039 4.9327e-16)
(-7.56297 1.58117 0)
(57.6205 -13.9088 1.757e-15)
(26.3601 -10.8918 -6.29083e-15)
(-4.85564 -0.652011 -9.37934e-15)
(-18.2391 -12.398 1.23107e-15)
(36.3148 -5.50434 0)
(50.303 17.3815 0)
(40.1288 19.0018 -4.41732e-15)
(47.8575 -14.372 -2.21587e-15)
(69.7454 18.147 -6.50079e-15)
(44.4809 27.3841 -1.40078e-15)
(-16.4366 6.14641 -4.06484e-15)
(-0.909561 34.1975 0)
(13.5305 14.3094 0)
(3.78592 -3.07881 4.52015e-15)
(18.3197 -15.3014 3.26411e-15)
(6.93093 3.74014 -2.18343e-15)
(17.8251 -16.8664 9.39101e-16)
(23.183 15.6185 6.29807e-16)
(11.886 -5.35818 1.19359e-14)
(38.4532 6.29424 8.33832e-16)
(-6.62431 15.7891 0)
(31.8146 17.1151 0)
(53.2674 3.28424 -9.42669e-15)
(28.9421 -7.34895 -9.40648e-15)
(50.6646 14.7007 9.70276e-15)
(55.9451 0.615125 1.96381e-14)
(18.9573 6.87888 1.33294e-14)
(13.3602 -8.13988 0)
(27.5688 5.76298 -1.29178e-14)
(28.8517 4.69895 0)
(-21.6707 11.0098 0)
(-11.0813 -20.8954 3.05851e-15)
(-3.77304 1.55971 -3.62305e-15)
(20.7222 -18.2974 2.63809e-15)
(52.1221 17.4142 2.26538e-15)
(21.2449 -14.302 3.82717e-15)
(30.3473 9.45238 -4.36666e-15)
(64.3931 39.5084 -1.48442e-15)
(24.7401 6.00103 -1.8135e-14)
(8.6386 7.66888 -5.23312e-15)
(60.6876 -22.2004 0)
(22.7134 66.3345 -8.22854e-16)
(52.3848 6.99178 5.72385e-15)
(48.4507 -3.00148 -5.48798e-15)
(7.99061 5.75899 0)
(-61.6393 29.086 8.02361e-17)
(-9.8299 -1.53543 1.13341e-15)
(50.0666 7.63138 0)
(12.29 -36.4978 -1.07565e-14)
(-4.17603 5.59248 9.40086e-15)
(-49.0747 -34.8581 1.13271e-16)
(-9.9014 3.69757 0)
(20.5666 -16.3456 0)
(12.6125 28.5272 6.71477e-15)
(16.9349 15.3152 -9.59267e-15)
(57.617 38.7557 0)
(24.8691 34.4673 1.65911e-15)
(26.2513 6.31102 -6.95068e-15)
(4.91788 14.6293 5.10945e-15)
(32.4779 9.70282 0)
(39.6573 19.4278 8.65506e-15)
(39.1587 -14.1395 -4.85238e-15)
(20.7323 -8.57199 -3.99682e-15)
(37.9503 14.5009 0)
(-23.0041 -16.2389 -2.15473e-15)
(-5.69481 -10.9177 4.9838e-15)
(97.1394 -5.11562 -1.864e-15)
(49.7161 1.09857 4.68929e-15)
(73.9488 -2.36165 1.28006e-15)
(-44.5561 -60.2258 1.05803e-15)
(-6.76726 11.6403 8.94395e-15)
(-9.38235 -10.9015 9.21406e-15)
(-53.1448 57.483 4.39736e-16)
(-0.467292 -35.1354 -1.1658e-16)
(-0.364256 -19.9061 6.57767e-16)
(-11.8811 -9.18545 0)
(-12.4735 15.9882 1.13391e-16)
(13.334 -12.9709 -9.49132e-15)
(45.0028 -18.6171 5.64472e-16)
(19.4938 16.2829 -4.76896e-15)
(66.6074 35.6914 0)
(13.7705 -5.4624 4.69899e-15)
(52.3711 -25.3376 0)
(35.0936 -20.3076 0)
(9.10321 12.4806 4.98506e-15)
(-16.6728 -16.2051 -9.37701e-15)
(-23.2668 -26.4958 -2.12317e-15)
(-29.0392 5.49208 0)
(-32.9484 -26.5299 5.03731e-16)
(-19.4159 -15.1124 -5.36177e-15)
(-15.3807 -11.3834 -9.45818e-15)
(-33.8468 -23.4195 1.80067e-15)
(36.566 66.3234 -9.7531e-16)
(42.4932 37.4254 8.27308e-16)
(-53.3702 -14.675 -4.87057e-16)
(-12.3027 9.37621 -4.78794e-15)
(18.3229 -1.03781 -4.10721e-15)
(-10.1165 -8.77491 4.63875e-15)
(-41.9561 8.03341 0)
(-3.38042 -15.5368 2.22937e-15)
(21.5136 13.61 -7.80821e-16)
(11.4745 10.7272 0)
(2.38623 24.3923 -1.10625e-15)
(-10.0685 33.6672 0)
(1.30829 -4.06675 0)
(-3.00255 1.21943 1.0303e-14)
(17.1269 16.8579 -1.15821e-14)
(49.3222 -6.97245 0)
(62.2722 -16.9529 8e-15)
(-33.3601 -1.69553 -2.07999e-15)
(-1.80014 42.5591 0)
(-0.853886 4.04172 8.96367e-15)
(-6.80617 16.6377 -4.47835e-15)
(-0.102478 14.6739 0)
(2.413 -15.1423 0)
(20.4737 -40.643 0)
(15.5695 -6.80515 4.95406e-15)
(34.8891 -22.1365 -9.58177e-16)
(55.461 -0.409134 0)
(0.0180567 4.77266 0)
(-6.36283 -21.7489 -7.37528e-15)
(16.1868 -11.9265 0)
(-14.7736 6.08643 1.22926e-15)
(-4.4362 -1.84304 -9.43124e-15)
(-1.17497 -28.9712 1.14981e-15)
(7.14752 -9.03264 -1.43966e-15)
(34.8077 17.1237 4.08055e-15)
(36.8403 -33.396 7.5654e-16)
(-3.65947 -11.7857 2.45282e-15)
(44.3856 17.5419 -9.48668e-15)
(-1.2187 -8.74444 -3.20923e-17)
(29.2598 10.4834 5.19153e-15)
(54.755 24.6556 0)
(-5.1902 0.486637 -6.40625e-15)
(10.94 -17.956 3.99897e-15)
(4.93137 23.2018 -2.94258e-15)
(-31.0604 29.8805 -5.29901e-15)
(-1.36777 -2.1643 -5.75967e-15)
(-21.932 2.62867 -3.71258e-15)
(-30.9959 22.7081 3.09148e-15)
(13.2829 -15.529 -1.16612e-15)
(-1.307 0.183076 -3.14774e-17)
(8.68882 1.6821 1.1888e-14)
(13.9131 3.8021 7.7083e-16)
(37.1229 1.18918 3.64868e-15)
(-16.9342 8.50174 0)
(32.5388 17.7779 -3.79529e-15)
(61.4246 5.18954 -9.63829e-15)
(34.6829 -18.2967 6.29394e-16)
(53.5493 -38.1869 -7.33811e-16)
(10.4457 21.2678 -1.87857e-15)
(5.48216 34.4748 1.46559e-16)
(-4.23701 -3.53025 2.27004e-15)
(-7.16724 -3.78049 -4.76445e-16)
(7.18382 -13.3022 0)
(-5.65131 16.5539 4.9138e-15)
(20.6982 -23.9434 3.33532e-16)
(-19.7498 -15.8131 0)
(-2.36615 12.1393 1.02104e-17)
(-5.20224 -5.20715 0)
(0.272918 21.28 0)
(-12.6066 16.4644 0)
(-27.633 24.4705 0)
(31.8606 -22.5162 -4.12317e-15)
(10.414 18.0307 0)
(10.9015 12.3792 0)
(63.3137 56.2712 -8.92529e-16)
(44.1119 17.2163 0)
(18.385 -5.48694 4.13973e-15)
(57.3045 -13.8851 2.22185e-15)
(25.4365 -3.47342 0)
(31.7093 -9.57908 0)
(72.0861 -6.79944 6.27338e-15)
(12.8466 31.1165 -1.86937e-15)
(-13.8138 13.5036 2.44835e-16)
(-6.52081 -1.72797 8.76893e-15)
(-3.13752 2.35994 -1.5887e-14)
(-4.76126 -14.2997 8.14652e-16)
(26.7603 22.03 1.94366e-15)
(3.97319 -1.1689 1.07669e-14)
(7.09852 2.14913 6.71822e-15)
(39.4971 -25.6046 1.90211e-15)
(4.50481 4.85216 0)
(-7.69497 -18.5667 6.30476e-15)
(21.9463 2.39509 2.16667e-15)
(-6.80323 13.0628 -7.42682e-15)
(47.5735 -32.7968 -1.36537e-15)
(56.8325 26.1742 -1.14777e-15)
(0.717465 9.5593 -1.88319e-14)
(0.6134 -6.57076 -9.02346e-15)
(-6.05022 -3.05501 0)
(-43.0578 15.9885 -1.35403e-16)
(14.8307 -8.66684 8.43884e-15)
(16.6732 -25.6121 2.55438e-15)
(31.6125 6.18596 0)
(30.2864 18.3528 -4.67392e-15)
(4.26881 7.19036 -4.54732e-15)
(-16.891 -18.0519 0)
(58.0222 18.0229 4.58554e-15)
(11.1135 -17.3929 0)
(27.5235 -14.2694 4.32184e-15)
(42.4913 -7.6197 0)
(13.768 30.7182 -8.34688e-17)
(1.65398 26.9397 1.85363e-15)
(48.7958 -24.583 -3.45755e-15)
(-7.48758 18.4636 1.28333e-15)
(-22.5762 -41.694 1.09659e-15)
(-14.9278 -10.3643 0)
(57.1698 -10.9215 6.26017e-16)
(-14.9028 34.8892 -7.51724e-17)
(-4.03624 -18.3003 7.47765e-15)
(24.1711 -14.5311 8.79879e-15)
(57.9824 3.46597 0)
(52.2944 -5.99162 6.16546e-15)
(-13.88 22.6595 -1.75915e-15)
(-1.22783 -7.24835 -8.18438e-15)
(-22.3099 5.4315 0)
(54.5332 -8.46785 -1.53824e-14)
(-4.44909 9.02939 -1.12297e-14)
(-19.8515 -27.0196 0)
(-2.56059 -5.03591 -1.48502e-15)
(-1.86608 -2.68532 2.3956e-15)
(7.49708 2.95913 -1.01557e-14)
(5.17063 -4.01335 0)
(55.8295 -28.7341 -2.79377e-15)
(40.7351 20.0389 2.14172e-15)
(-9.793 10.602 -1.75672e-16)
(-42.087 -11.66 -4.32827e-15)
(20.931 -28.4417 0)
(8.44476 6.84249 2.24596e-15)
(10.2224 16.2793 2.42661e-15)
(-0.912454 0.483297 -3.422e-15)
(-12.8497 3.36483 1.12827e-14)
(9.95723 6.80144 7.09229e-15)
(40.62 27.1815 -2.56059e-15)
(3.62728 -0.0831124 -8.31798e-15)
(37.4654 -17.7731 0)
(23.0998 9.17565 -5.42431e-15)
(5.14999 11.639 5.52509e-15)
(25.4326 -7.88775 1.11862e-14)
(42.7149 9.92599 0)
(1.4488 25.869 -2.63961e-15)
(1.38446 -11.3955 -4.98268e-15)
(4.15201 -18.0486 0)
(17.5961 -2.47805 -4.41014e-15)
(9.96839 -37.8284 4.31154e-15)
(0.660693 32.8301 3.6696e-15)
(19.9342 46.4113 -3.17051e-15)
(50.4374 -6.25099 0)
(-26.4822 0.189061 -2.153e-15)
(-9.88751 -1.82821 0)
(-7.74687 1.94949 -9.12489e-15)
(-13.8939 -4.16131 2.55674e-16)
(33.7997 -8.6508 0)
(-1.90364 11.1388 5.62722e-15)
(77.4668 16.4472 0)
(16.5344 -3.76653 5.37044e-15)
(8.85192 19.4913 -2.65104e-15)
(13.7321 17.1678 -1.2834e-14)
(8.7818 15.2743 0)
(40.2608 5.09753 6.74372e-16)
(19.8185 0.0410905 -6.65666e-15)
(29.5032 25.8371 3.92431e-15)
(37.2822 6.85371 1.90606e-14)
(5.34485 -11.2097 0)
(21.3794 6.90931 4.30516e-17)
(-19.1088 -25.7196 3.76913e-15)
(-19.2139 -23.4606 -7.2315e-15)
(16.317 2.52034 4.15274e-15)
(-49.987 -5.47438 9.61288e-17)
(26.573 -2.79837 -1.23072e-15)
(19.9716 -3.19441 8.97763e-16)
(52.0906 14.4822 9.45337e-16)
(17.772 -7.77505 -3.53229e-15)
(19.8643 18.5957 -4.30787e-15)
(9.15455 -21.3857 2.76845e-15)
(-50.7695 15.1196 0)
(28.4669 -6.00674 0)
(41.7606 -51.1275 0)
(24.9584 -22.2205 5.54349e-15)
(31.7839 19.2632 0)
(17.3543 6.99164 -1.58519e-14)
(-20.7429 10.83 0)
(-10.722 8.01924 -4.99883e-15)
(-43.3601 -17.5443 0)
(-35.5786 17.3757 -1.29202e-14)
(-18.8171 -10.3238 6.42115e-16)
(24.119 19.7386 0)
(-0.957956 -0.183301 0)
(-18.6134 -52.1708 -3.38631e-16)
(35.6376 -19.7532 0)
(-14.1763 -1.43371 0)
(41.882 -10.9391 8.44589e-15)
(-18.8498 10.6258 8.70732e-15)
(-39.0663 -11.7928 0)
(13.3548 -6.60373 2.50734e-15)
(-7.83559 3.39286 5.74082e-15)
(50.9239 -40.4199 2.83971e-16)
(-48.7367 -15.6363 2.52115e-15)
(47.5159 -7.3713 2.38112e-15)
(-1.97105 4.56999 9.68103e-15)
(1.95314 -7.34645 -2.43864e-15)
(-3.48137 -1.6775 5.67165e-16)
(-5.23126 -22.495 7.86781e-16)
(-16.3775 2.33953 2.36679e-15)
(46.6235 -26.8751 -6.29536e-17)
(14.8096 2.26594 2.59598e-17)
(8.73162 -3.73763 -4.44552e-15)
(71.5709 -5.19275 0)
(32.1413 11.9965 0)
(29.2492 -64.8579 0)
(-5.55244 8.46705 4.49881e-15)
(-5.00442 -0.44952 -4.5667e-15)
(-0.678233 -11.4244 -2.25839e-16)
(-17.6404 20.319 -1.24575e-15)
(-14.8684 1.29457 0)
(40.0752 31.2304 6.29298e-16)
(58.9702 -26.8756 4.84914e-15)
(36.2357 -18.2722 -1.03061e-14)
(71.5142 -28.9688 0)
(-11.275 -6.03533 2.58218e-15)
(-5.5034 9.59076 -9.46093e-15)
(-12.1487 -0.699931 9.8582e-15)
(-16.4405 10.1447 1.76295e-15)
(-0.191572 -8.86727 -1.47982e-15)
(1.23984 0.30279 -1.5124e-14)
(36.8564 14.2575 -5.03292e-15)
(4.76562 0.541908 0)
(6.43129 6.34511 -5.43427e-16)
(6.26366 17.5136 0)
(-35.0891 15.7605 -4.94513e-15)
(15.437 -10.7701 1.99428e-14)
(23.0805 -22.2075 -1.40691e-15)
(4.22226 15.5037 -2.72159e-16)
(-50.5942 -4.67383 2.96168e-15)
(14.7133 -42.92 -9.73093e-15)
(5.54335 -38.6965 -1.27715e-14)
(-38.2456 -2.74664 1.13231e-14)
(23.7052 -14.5662 0)
(-25.8653 -22.9277 -5.37026e-15)
(8.38595 21.7341 0)
(-23.5091 -11.7511 -3.50192e-16)
(-3.91826 12.6343 0)
(-9.05801 29.2907 -3.8135e-16)
(-7.04705 -4.19449 4.57335e-15)
(-0.828609 5.14724 1.40596e-17)
(16.9545 -6.86631 6.12226e-16)
(-3.116 15.2892 0)
(5.45816 30.1192 0)
(4.78839 -4.34065 -4.95348e-15)
(26.701 9.90679 1.08881e-14)
(-0.910583 -13.6901 2.71954e-15)
(4.04542 25.0122 0)
(-9.36123 16.9483 -1.39587e-14)
(-4.92356 -25.7773 -1.97051e-15)
(-4.53542 12.8358 -2.12487e-15)
(-24.4439 -19.9694 0)
(29.8751 61.1219 1.16572e-14)
(20.1372 61.2382 1.51428e-14)
(38.1468 -12.1421 0)
(43.5666 10.5061 -1.99373e-15)
(31.6283 -8.70791 9.16595e-15)
(9.24815 -0.21028 7.57161e-15)
(22.2146 -13.75 3.27291e-15)
(-57.2565 14.4673 -2.56319e-15)
(16.8823 3.8528 0)
(-20.9147 7.95966 -1.67346e-15)
(-5.52831 6.74931 -9.24485e-15)
(-5.12901 -2.32878 -8.76736e-15)
(-7.4386 -7.50921 1.00636e-16)
(14.2106 -13.6818 -7.74994e-15)
(21.3146 5.74187 -4.46913e-15)
(-24.5877 10.4506 1.36434e-14)
(6.08801 1.96182 -1.61918e-14)
(14.8475 1.30954 0)
(24.9113 -19.0587 4.66484e-15)
(-31.3417 -13.4994 0)
(15.7743 -18.0252 0)
(-16.0288 -27.1806 9.00668e-16)
(-11.6165 -14.7491 0)
(-10.2794 -1.93647 -9.66836e-15)
(-55.6752 -7.55577 0)
(-11.7077 3.18328 0)
(-64.5485 3.18747 -9.01485e-16)
(12.8474 4.37487 1.93716e-15)
(57.556 -21.637 0)
(8.90858 6.90029 -2.9265e-15)
(24.6397 -10.0199 -6.89828e-16)
(17.5127 -1.94084 4.96049e-15)
(-0.769679 14.2811 1.85241e-14)
(-1.04033 7.74849 0)
(-31.2334 -6.19674 -5.85163e-15)
(16.5633 8.7679 0)
(-8.18204 12.6044 -2.31648e-15)
(-8.81851 -13.1511 0)
(37.237 3.95306 1.1472e-15)
(8.05907 -0.0981721 0)
(26.5246 -7.3332 0)
(19.902 -0.137528 -1.43523e-14)
(-20.0618 17.0552 5.86483e-15)
(68.8808 -52.8665 1.1526e-15)
(-23.7647 2.09301 -3.76416e-15)
(30.2851 16.8823 0)
(33.4586 -6.26397 -4.78062e-15)
(-50.4643 9.96491 -3.94536e-15)
(2.758 -4.36252 7.86886e-17)
(-7.65792 8.56186 0)
(16.6524 -3.76232 0)
(33.6286 -1.0749 -4.55383e-16)
(20.82 6.17923 -4.7098e-15)
(-0.30687 -7.79715 -3.95802e-15)
(12.3958 42.3147 6.79117e-16)
(-2.6817 11.9657 1.11524e-15)
(-0.620312 6.12259 -1.06925e-14)
(-12.4985 -15.3333 0)
(26.1644 -28.8336 0)
(6.46665 3.6257 -4.15035e-15)
(-11.6616 -0.501774 -1.42941e-15)
(4.33586 -12.3317 -4.43799e-15)
(0.126927 -9.78539 -1.13301e-14)
(-6.7165 -5.15887 0)
(29.7926 22.7671 0)
(33.2262 17.3918 -6.90756e-15)
(-5.73801 13.9272 0)
(-4.18133 -9.2955 0)
(6.0858 27.572 4.41441e-15)
(-21.7537 -4.98558 4.44441e-15)
(16.0007 5.09157 1.01511e-14)
(12.1525 4.48131 0)
(-19.7263 -7.77979 -1.71831e-14)
(-6.10416 10.4334 2.23851e-14)
(45.4871 26.5044 3.91933e-15)
(-33.7385 1.16591 5.61138e-15)
(-19.4565 -12.1344 -4.83942e-15)
(9.20099 -7.0768 5.01426e-15)
(18.0053 -10.6952 9.57776e-16)
(-1.60552 -2.92874 2.81205e-16)
(6.96878 -51.3321 1.36784e-16)
(52.9647 4.3803 0)
(16.9083 9.10762 3.29057e-15)
(-14.58 4.75197 1.6697e-15)
(-4.74485 7.42737 5.24689e-15)
(-5.47686 -12.763 0)
(-5.30878 1.7606 -1.39809e-14)
(3.09935 2.65449 0)
(-6.45618 1.10199 0)
(-17.2222 -6.94733 -6.47392e-17)
(62.8004 -4.54824 -1.64814e-16)
(-8.86226 -5.3376 1.00549e-14)
(26.9549 -7.61089 -9.18389e-15)
(-2.25545 5.73112 -4.80762e-15)
(-2.47953 -20.3782 -2.13833e-16)
(-23.2281 -0.509071 -4.7213e-15)
(-7.68805 -15.4707 -7.99573e-16)
(-2.31428 -63.4114 1.16638e-15)
(5.4004 21.4612 2.84595e-15)
(15.6403 3.42151 8.54911e-15)
(63.0924 13.6313 -1.20682e-15)
(1.58866 2.2909 0)
(-18.3281 7.82154 5.44406e-16)
(-1.49733 -1.92225 -5.75503e-15)
(2.55746 9.32917 4.31757e-15)
(27.4683 -15.4423 -1.39356e-15)
(51.8034 8.88303 0)
(41.1685 3.85082 2.53471e-15)
(-30.5164 -12.6331 0)
(-65.4045 -30.2085 0)
(43.8595 -9.79847 -2.41113e-15)
(23.717 -1.71566 3.38992e-15)
(-38.6833 -25.0817 3.47004e-16)
(4.32803 0.67763 0)
(-12.4979 49.1912 -2.17984e-16)
(-29.5968 21.3791 -4.16013e-15)
(-20.6408 -8.34347 4.10699e-15)
(-0.00594953 -18.9756 -1.00472e-15)
(33.208 -13.4394 1.09879e-15)
(31.6293 21.6534 -1.58266e-15)
(17.7482 3.32497 -7.40437e-15)
(0.578143 -13.4287 3.25727e-15)
(20.2082 3.34718 -5.55379e-16)
(11.8836 -7.06831 0)
(39.2564 4.77941 0)
(11.949 1.08092 0)
(46.7718 3.09626 -1.74701e-14)
(102.194 -13.8538 1.71929e-17)
(93.3598 16.8193 -5.42253e-15)
(58.7549 -3.31047 4.62824e-15)
(22.6719 -20.0396 0)
(-23.6365 8.14807 -6.70744e-15)
(73.1713 17.4664 0)
(-5.13843 9.21147 0)
(-15.8122 9.05206 0)
(20.0956 13.7749 2.37281e-15)
(-18.1452 24.5387 -4.55272e-15)
(24.2331 21.6325 -2.73734e-15)
(-70.6243 -36.3828 0)
(-17.459 2.34892 7.18226e-15)
(-4.8207 10.7934 1.09587e-15)
(26.0806 32.1787 7.22411e-15)
(-11.7779 13.5663 1.84229e-15)
(-30.2723 -5.21549 3.19225e-15)
(-54.2932 -27.4378 0)
(-25.3575 21.4568 -1.41546e-15)
(16.4302 10.1144 0)
(13.2109 -8.19235 9.36964e-15)
(8.99931 -10.1662 0)
(4.84441 -18.1451 1.07112e-14)
(21.293 4.65825 1.38254e-15)
(37.9278 -37.8528 0)
(26.0917 -14.0315 -3.34783e-15)
(-35.0575 -32.4081 -1.21472e-14)
(-6.92813 3.04574 0)
(-20.0849 -4.4113 -3.69109e-17)
(-4.15833 -2.96376 -8.92821e-15)
(7.24243 -11.9983 0)
(-19.5629 25.4252 -5.35456e-16)
(-9.24409 0.745811 5.53987e-15)
(-5.85388 40.8837 3.66053e-15)
(-9.44961 -25.4149 4.38808e-16)
(-8.91871 2.57342 -5.29725e-15)
(-15.6248 9.66905 -8.28867e-15)
(-3.25226 12.0934 9.17215e-15)
(-22.7874 4.3853 -9.20418e-16)
(50.7225 8.55916 -4.80872e-15)
(-35.2628 13.2592 0)
(10.5723 25.4325 0)
(17.138 6.87637 -2.44577e-15)
(15.3761 24.9562 1.26321e-15)
(15.0654 -8.00366 0)
(7.17121 -44.4653 -1.18141e-15)
(3.25804 -5.09782 7.39293e-16)
(25.7357 19.5066 -1.51509e-15)
(8.06287 3.44869 0)
(-37.7103 13.6346 -1.4881e-15)
(19.5597 9.78007 7.27933e-15)
(-1.87798 -0.708027 1.20664e-15)
(-6.6922 8.99719 0)
(-0.573328 -0.109135 0)
(4.80359 -15.5736 -1.54738e-16)
(27.2757 16.3939 -4.75195e-15)
(9.34639 2.00232 -6.83427e-16)
(11.4797 0.335668 5.19309e-15)
(48.2954 7.7227 1.58775e-15)
(62.0739 -23.2063 -2.63481e-15)
(-10.078 -9.30744 -2.16624e-15)
(7.30385 14.989 2.80509e-15)
(-23.6913 -1.15063 0)
(-47.2647 -11.7091 -5.13119e-16)
(83.9645 7.58677 -7.27627e-16)
(60.6698 13.0168 -5.15133e-15)
(4.00935 4.3109 -3.6936e-16)
(16.0718 2.87767 7.67473e-15)
(13.9106 -3.02503 -1.31052e-15)
(51.4592 -11.9861 0)
(16.1827 -13.6304 7.69827e-16)
(0.0448902 -55.1305 1.92648e-15)
(4.49918 -11.2076 0)
(27.9921 14.6291 -2.94095e-15)
(-20.1287 11.4344 7.96843e-15)
(-7.22945 -21.6834 -1.04725e-15)
(-30.0327 9.30391 -2.10963e-15)
(-11.1304 -0.403768 6.94616e-15)
(25.8413 -2.49421 5.65952e-16)
(-5.67125 -11.921 0)
(-0.416829 -2.18491 0)
(17.2901 60.5438 8.50933e-16)
(20.9617 17.7216 0)
(56.7529 -27.4328 0)
(6.24288 8.0962 0)
(13.8736 38.9073 -9.72912e-16)
(-7.27905 9.41257 9.41787e-15)
(36.7941 -5.75141 2.85416e-16)
(-17.7668 26.5449 0)
(-19.7954 2.53457 0)
(5.76447 0.558329 0)
(51.164 -10.4859 3.68808e-16)
(3.98234 -0.178943 -9.99008e-15)
(60.0231 -3.08576 0)
(18.4339 3.51302 2.26301e-15)
(64.8796 -2.63164 5.3159e-15)
(63.1575 -8.70613 -5.84586e-15)
(30.9225 16.5073 -1.06955e-15)
(12.0763 3.89235 0)
(70.3111 -6.41783 0)
(14.7554 25.0442 3.17021e-16)
(12.0549 5.06674 -8.72638e-15)
(-26.6609 -20.2112 -5.93821e-15)
(-24.1557 12.0193 -7.17996e-15)
(-6.682 11.9956 4.75496e-15)
(16.8255 11.9163 0)
(95.1149 15.2492 0)
(4.74468 -0.998285 0)
(6.21867 3.68756 -2.49648e-17)
(107.274 -23.5503 1.37867e-15)
(44.8688 -47.8028 0)
(23.6597 32.8185 -9.12476e-15)
(8.76618 30.8906 3.29374e-15)
(6.22369 -18.457 0)
(-4.11997 17.0618 1.02469e-14)
(-0.948155 -28.8267 -4.57558e-15)
(44.4819 47.3575 2.62875e-15)
(-0.071242 -10.201 2.12002e-15)
(4.69175 18.2425 8.70561e-16)
(-4.76584 1.41816 -2.47065e-15)
(-13.4622 3.74646 4.92035e-16)
(1.26351 -34.1428 0)
(-1.65082 32.8496 9.21748e-16)
(-1.62358 2.33722 9.97053e-15)
(0.963206 0.917694 0)
(-12.2333 4.48305 0)
(3.15072 -12.916 -4.26156e-15)
(9.63619 22.3964 -4.19522e-16)
(-12.475 21.5275 0)
(-2.39747 12.7204 -2.23524e-15)
(1.43577 -23.8201 5.3017e-16)
(-49.9507 24.5115 0)
(38.5168 6.13467 0)
(12.0094 -1.6614 5.13394e-15)
(41.0066 -6.80473 -3.84604e-15)
(15.1251 2.68224 0)
(-28.9376 -8.95263 -2.73568e-15)
(-43.0566 12.419 -1.16861e-15)
(30.3817 5.35582 -3.36477e-15)
(-10.3864 22.9809 4.44892e-15)
(17.6716 -24.104 6.07702e-15)
(-20.6299 46.8429 0)
(-45.0758 -24.6359 0)
(-26.6567 40.2258 -4.44523e-15)
(-5.65159 23.8678 -4.53295e-15)
(-14.7529 -46.8989 0)
(-11.9764 31.8111 8.15572e-15)
(10.5921 19.2151 -4.84426e-16)
(-5.52293 3.94097 -1.25173e-14)
(13.1541 -14.8304 -1.4051e-16)
(-4.16127 -0.695078 0)
(-0.813201 -7.4546 3.92964e-15)
(18.9565 20.0442 8.15918e-16)
(97.5251 0.605346 -1.03878e-15)
(19.7931 -10.7654 0)
(-2.76078 0.900775 -1.08198e-14)
(2.74369 -9.85889 3.27128e-17)
(-29.1016 2.5404 1.23372e-15)
(-5.8466 3.6961 6.69099e-15)
(36.8312 -9.51084 -6.18573e-15)
(-34.187 11.3333 -1.21714e-15)
(-16.9186 3.61398 0)
(76.3181 44.0208 1.35003e-15)
(-21.5094 3.8728 7.78867e-15)
(37.6287 -1.96842 6.23478e-15)
(37.0536 27.889 -1.27136e-14)
(-15.9718 39.142 -8.25203e-15)
(9.28991 -6.09573 0)
(21.3193 -7.36143 -2.02427e-15)
(-32.8523 17.574 -9.56015e-17)
(22.325 19.0237 7.72881e-15)
(-2.73822 -2.15777 1.19357e-15)
(-50.1639 -24.0555 0)
(25.5921 27.4374 0)
(-15.16 -9.5597 0)
(32.3469 35.0999 -1.22404e-15)
(26.8059 -18.4063 0)
(22.4861 33.951 -1.24087e-14)
(30.5162 -20.0156 8.7926e-15)
(-9.00432 -8.44335 -3.44669e-15)
(2.90112 -4.1841 -4.94551e-15)
(-8.01509 -12.3032 3.76902e-16)
(-38.8693 -24.1171 -5.32681e-15)
(-36.2258 -10.3357 5.53783e-15)
(-27.4194 31.6949 -5.4972e-17)
(-2.24156 1.05162 2.36813e-15)
(-19.9356 2.65491 -1.12577e-15)
(8.70588 7.79732 0)
(39.6345 -17.4263 0)
(-8.81453 6.71902 -9.01718e-15)
(-16.3508 24.9253 0)
(28.2932 30.3162 0)
(13.9531 51.4459 6.50594e-16)
(-12.0198 -12.2133 0)
(0.566235 38.7226 1.48835e-15)
(-0.834914 17.2865 7.38005e-15)
(31.7625 -2.43588 -6.80679e-15)
(11.5668 23.823 0)
(7.08297 8.79146 -3.70986e-17)
(1.64844 20.5827 -1.58019e-15)
(-0.615375 8.67158 2.5684e-15)
(35.3633 19.3032 1.36397e-14)
(35.1313 10.5341 0)
(5.95831 7.39681 1.02052e-14)
(20.796 -55.3722 1.49097e-14)
(29.7078 -56.5049 0)
(-16.2418 -12.0734 2.21749e-15)
(-8.91985 6.993 0)
(45.3904 31.7039 2.84991e-15)
(7.69322 -13.7884 0)
(69.3868 8.4793 -1.26161e-17)
(25.7427 -17.6519 -5.25053e-15)
(48.5941 -18.777 1.46915e-15)
(-23.3841 20.6793 0)
(-11.9425 9.61163 -2.58648e-15)
(-25.7304 9.22577 4.62499e-15)
(-30.1459 -8.05236 0)
(26.6388 45.9608 3.00182e-17)
(-20.0405 7.66143 5.04121e-17)
(22.641 -4.4242 0)
(-3.51393 9.62876 0)
(32.5868 -25.892 8.98854e-15)
(24.7968 3.00336 0)
(3.11568 8.02954 0)
(-9.0648 -5.11117 0)
(-55.1248 1.63789 2.72233e-15)
(0.731097 -2.82504 4.23671e-15)
(25.3263 34.9072 -2.87338e-16)
(-10.6867 -29.6302 1.3051e-15)
(24.2115 -16.3674 0)
(40.2967 19.3693 2.22587e-15)
(10.3391 -22.8083 0)
(8.7694 0.859307 1.02633e-14)
(18.5765 -9.82352 0)
(-1.99471 -20.9005 0)
(-7.47979 20.5916 0)
(2.31879 1.74081 6.00112e-15)
(2.06336 0.641773 8.17182e-15)
(-21.1763 -9.96286 0)
(59.46 -1.27715 -1.86384e-15)
(10.1405 18.2332 -2.89321e-15)
(15.2288 2.0563 -7.76045e-15)
(38.2744 2.14977 6.36465e-16)
(24.3599 -12.0051 0)
(-26.8499 -5.11098 0)
(-39.2136 5.0851 -1.84983e-15)
(17.2608 -10.5999 -5.51788e-15)
(-17.8699 -8.81666 -2.3475e-15)
(-3.72503 -8.30487 9.81719e-15)
(-1.27849 -19.9965 -4.92151e-15)
(-20.7792 10.4048 0)
(2.93794 -19.3102 6.80934e-18)
(-20.6749 22.4045 4.93889e-15)
(-6.72561 -14.7267 1.14971e-14)
(46.623 -14.9964 4.07616e-15)
(29.1766 1.95946 0)
(11.3377 38.505 1.94025e-15)
(8.30754 32.0873 0)
(9.21438 6.47025 -2.73997e-15)
(-1.84007 -22.2416 1.8667e-15)
(-3.37491 16.0919 -1.0499e-15)
(18.5455 49.8789 3.93192e-15)
(2.48855 0.134044 -9.57584e-16)
(21.8935 5.14547 -1.36759e-15)
(-18.913 -4.91315 0)
(-3.49778 -7.68516 -7.12072e-15)
(2.6417 41.8062 0)
(19.9933 -8.56296 -1.49838e-14)
(25.2275 7.52715 5.00462e-15)
(16.6849 11.3142 0)
(-11.2495 -2.55455 0)
(57.9195 -22.7252 -6.54881e-15)
(19.7505 10.255 5.04814e-15)
(-8.4398 -7.10243 -2.06346e-15)
(31.7873 8.22136 -1.94799e-14)
(-10.2349 0.996389 0)
(-2.57039 -37.3504 0)
(-24.4776 -3.25469 0)
(-25.9525 30.5761 2.79533e-15)
(18.8891 -5.76886 -9.97597e-16)
(32.0846 35.4449 8.16334e-17)
(26.2975 -26.5558 -3.89303e-15)
(9.13796 -4.7372 0)
(32.3915 31.2691 0)
(2.94663 -14.1545 2.65936e-15)
(0.89283 9.63684 -1.43801e-15)
(21.5842 -58.7818 -2.57e-15)
(29.64 -20.7864 0)
(4.49486 13.7958 2.60518e-15)
(11.1307 53.434 1.71798e-15)
(5.44473 -8.77336 3.4122e-15)
(26.3305 -23.6366 0)
(5.77988 12.3924 -5.24658e-15)
(6.01527 -7.92173 4.94649e-15)
(36.954 24.0716 -9.17218e-16)
(14.8723 -19.2293 -1.14561e-15)
(19.3803 3.93891 0)
(3.0564 -0.0933739 0)
(-4.23628 3.67485 -8.97696e-16)
(16.075 -1.6768 -6.71522e-15)
(-7.23051 27.4557 -5.90537e-17)
(9.41062 4.87208 -3.22655e-16)
(15.8499 4.32034 3.31809e-15)
(-19.786 -7.43038 0)
(-11.9813 12.4259 4.23127e-15)
(-9.04256 1.15491 3.4217e-17)
(-7.37816 -16.3198 0)
(-30.4246 -38.8851 1.33966e-15)
(13.1897 28.7581 6.65738e-15)
(14.0007 17.9726 -6.09081e-15)
(-14.5137 4.02067 -5.5356e-15)
(-37.5617 2.09475 0)
(-44.8144 -1.14439 0)
(-29.198 4.32807 2.74975e-15)
(73.2728 -2.20583 0)
(58.3233 13.3061 3.60871e-15)
(16.1209 10.4991 0)
(9.36208 1.09264 0)
(41.5999 -0.236008 9.98014e-15)
(40.9105 -20.6875 7.45609e-16)
(26.4642 -6.05535 -5.02215e-15)
(-7.45383 -21.9962 6.67801e-15)
(-7.39797 -14.5198 2.05841e-15)
(49.1958 6.03337 -4.5405e-15)
(71.5408 11.2064 3.98196e-15)
(-16.5124 4.69763 -3.33012e-15)
(-12.2493 2.88126 -3.4174e-15)
(49.7737 6.3616 1.75567e-14)
(75.2696 -12.8816 1.03861e-15)
(52.601 -23.1927 -1.656e-14)
(6.37723 -19.5272 -2.86995e-16)
(18.8912 9.63502 -2.74825e-15)
(-16.8412 -29.9908 0)
(-2.0838 -16.9934 0)
(36.4192 43.4607 -4.83777e-15)
(24.2525 57.5012 1.37744e-15)
(24.9941 -14.1647 0)
(16.0275 31.0485 -7.46648e-15)
(-14.1476 5.76598 2.38582e-15)
(-18.4264 -11.6535 -5.70597e-16)
(-7.50487 -6.2614 0)
(-11.2945 11.952 4.5072e-16)
(3.65681 -32.0328 2.8535e-15)
(-21.2892 -0.15567 -4.16332e-17)
(47.7359 6.65703 7.51171e-15)
(19.2829 -27.3929 6.19604e-15)
(-8.13363 -30.2157 0)
(14.2189 17.1101 1.83339e-17)
(29.5365 -3.99591 4.30914e-15)
(-0.125695 1.40442 5.64414e-15)
(40.484 -31.4595 2.58784e-15)
(-11.6831 -19.6766 7.52912e-15)
(21.314 16.7222 -9.1149e-15)
(-33.2221 16.2613 -2.0196e-16)
(25.8359 11.0534 5.50059e-15)
(35.0735 -7.40722 -1.12261e-15)
(8.37066 -0.829519 -5.79222e-15)
(5.20107 -0.27563 1.46732e-15)
(21.0734 7.67723 -4.03311e-15)
(17.4975 0.212096 -3.5546e-15)
(5.42994 -4.79705 0)
(-12.5433 -12.5503 0)
(21.7188 -23.0856 -1.53686e-15)
(6.29278 -12.5733 0)
(41.389 12.8364 9.08588e-15)
(3.1258 0.854479 -5.58324e-15)
(-62.0961 -5.87537 1.38975e-15)
(3.58564 -14.6747 4.83099e-15)
(7.17394 21.3004 1.89194e-15)
(0.813901 -21.4999 0)
(-4.35504 17.2762 0)
(-20.6533 -0.938091 0)
(2.72614 -1.55976 0)
(-44.4669 -24.874 8.74045e-17)
(22.3392 3.24594 0)
(40.8155 -8.45308 2.49511e-15)
(35.0943 -9.14008 -1.13479e-15)
(27.9691 -8.92515 4.98173e-15)
(-10.4819 -18.8026 0)
(1.81027 0.661795 -7.36428e-15)
(3.91617 5.02054 0)
(-20.2396 27.4104 1.56326e-15)
(49.635 -20.3508 9.12646e-16)
(-31.6177 20.36 3.64221e-16)
(0.652514 5.35489 -2.39327e-15)
(-7.04185 11.6712 -2.26561e-15)
(-6.31996 -12.5784 -1.66009e-15)
(41.1462 72.3094 1.9349e-15)
(-34.1857 -6.30409 0)
(31.134 -12.7258 0)
(66.4188 16.5804 -8.95878e-16)
(-32.457 -14.2875 0)
(-19.4435 10.176 4.54878e-15)
(-58.2304 -27.2006 -1.00901e-15)
(10.9556 23.8496 6.77178e-16)
(-17.4153 -11.0237 -5.80921e-16)
(-12.4727 13.4188 -5.45424e-16)
(19.1568 14.6307 2.83969e-15)
(-7.06403 -16.9563 4.37662e-15)
(58.4182 3.0106 3.5249e-15)
(-34.8083 -13.7761 -1.42065e-15)
(20.8139 -2.95893 7.98361e-15)
(42.3943 0.449195 0)
(-27.5613 16.2328 2.79944e-15)
(14.4592 40.5434 -3.96517e-16)
(17.8455 -14.0322 -7.25181e-15)
(86.0921 -56.5139 1.27234e-14)
(28.734 -25.9855 0)
(-38.6427 41.995 9.35286e-15)
(36.0585 -17.1334 0)
(57.9447 0.183746 8.97246e-15)
(55.9979 2.29942 -2.91024e-15)
(42.6175 0.670441 0)
(36.5612 -6.04145 -3.1045e-15)
(17.301 16.5994 1.07791e-15)
(19.8196 3.26869 0)
(42.2071 9.59061 0)
(29.096 -30.8057 6.99396e-15)
(58.5132 28.5758 7.26968e-16)
(-30.4177 7.41393 -2.60687e-15)
(4.6731 15.856 1.07864e-14)
(90.4891 11.7339 0)
(1.62416 14.6389 5.07707e-15)
(40.3219 -12.9785 0)
(-0.33821 20.1891 -2.73218e-15)
(7.26586 -11.0765 1.8828e-16)
(-21.4729 -7.8975 6.36994e-15)
(-17.9753 24.4145 -5.43677e-15)
(-7.94823 17.4528 -1.90741e-15)
(44.3085 15.0867 0)
(26.1636 20.611 0)
(-6.5649 11.8457 -3.86974e-15)
(42.3617 10.5052 8.88717e-15)
(18.668 2.52674 -3.55516e-15)
(23.2973 27.2793 -5.18956e-15)
(7.43151 -1.6785 0)
(-0.734619 -10.2759 0)
(18.3369 1.96275 -4.32749e-15)
(-0.252355 -7.48186 3.88494e-15)
(11.0708 39.7246 0)
(6.41512 -6.02433 1.07063e-15)
(-5.04028 13.2976 0)
(-0.68293 -3.75182 4.33003e-15)
(-21.2909 -18.9087 1.40221e-15)
(-6.65434 -8.79791 -2.43064e-15)
(-9.96895 -25.7091 2.66077e-15)
(58.778 -4.58259 0)
(-16.2873 3.47597 2.30938e-15)
(-16.2014 3.62689 0)
(-6.95098 -8.03311 2.60313e-15)
(22.0929 24.8603 -3.61024e-15)
(47.2406 27.2677 -4.57611e-15)
(-35.3421 -29.6355 -2.69752e-15)
(2.93172 2.62923 -7.13089e-16)
(27.425 14.284 3.95645e-16)
(2.32306 5.47427 -1.21747e-15)
(27.3679 -16.8994 2.00917e-15)
(5.38624 3.32194 0)
(-24.0773 -14.9511 -3.50275e-15)
(-75.9984 -36.6895 0)
(-18.7817 6.21902 1.46308e-15)
(24.73 6.27221 -4.54762e-15)
(-7.10219 32.5083 0)
(39.7561 0.910708 0)
(-15.167 -25.6283 -3.40051e-15)
(8.74143 13.293 0)
(-17.2959 11.498 3.19281e-15)
(58.3314 14.7824 -4.17244e-15)
(-21.0428 -1.83598 0)
(-3.94222 6.02399 -3.72085e-15)
(27.0761 5.16823 8.28663e-15)
(5.62361 4.56274 1.174e-14)
(32.4807 -9.78896 4.6916e-15)
(33.4581 -8.24661 0)
(2.56771 -2.3161 -6.39407e-15)
(12.3722 36.7853 -6.41046e-15)
(36.5775 28.7246 -6.01617e-15)
(-33.4388 -14.9497 1.77987e-17)
(40.4832 -11.2267 5.64401e-15)
(5.95136 -17.761 -4.09868e-15)
(-1.47256 28.1714 0)
(-5.37629 -18.8226 0)
(-46.2698 -16.0338 -1.7402e-15)
(-32.9985 38.0966 -1.56115e-16)
(-10.7636 -20.1808 1.15682e-14)
(41.4445 14.4762 2.02165e-15)
(-25.4452 42.3782 5.46155e-15)
(-1.41744 23.7415 6.83594e-16)
(-20.7786 15.5649 -5.25388e-15)
(-31.201 25.0349 5.34018e-15)
(-31.7592 -16.1715 -4.7219e-15)
(35.5352 21.8851 -1.21499e-14)
(5.08769 41.5548 -1.83454e-15)
(-13.7862 12.2812 -7.10601e-15)