/*--------------------------------*- C++ -*----------------------------------*\
  =========                 |
  \\      /  F ield         | OpenFOAM: The Open Source CFD Toolbox
   \\    /   O peration     | Website:  https://openfoam.org
    \\  /    A nd           | Version:  7
     \\/     M anipulation  |
\*---------------------------------------------------------------------------*/
FoamFile
{
    version     2.0;
    format      ascii;
    class       volScalarField;
    location    "0.2";
    object      p;
}
// * * * * * * * * * * * * * * * * * * * * * * * * * * * * * * * * * * * * * //

dimensions      [0 2 -2 0 0 0 0];

internalField   nonuniform List<scalar> 
2700
(
182985
989109
219704
951794
530273
812339
858109
517414
843646
459358
818772
496362
860810
396072
963640
369038
288456
931514
986712
176497
833473
683227
423872
472428
997030
196185
879868
452248
535818
913249
846339
209523
944692
129299
969583
864605
470499
847791
466637
888543
279298
636631
891242
1.01045e+06
50393.8
493199
830929
278571
982922
312163
847681
847675
895197
153579
951493
412805
982395
174494
217858
948673
765611
754078
979796
227889
868298
900611
887483
337673
654909
250723
832064
583441
246346
946928
266357
982318
465553
556384
921355
457453
505452
508440
647576
890327
685310
890163
860874
480854
929784
873894
465292
449771
876261
488052
316108
869525
474091
277811
938296
597738
602039
204782
606673
584470
513503
134075
952268
277872
574630
556163
146897
989301
857982
845351
955746
523467
257974
644513
440679
896115
878591
476652
471877
481202
185754
973900
306387
972990
355250
241330
980869
946191
231359
248062
924573
849065
871331
760774
193020
962628
158231
993196
680797
725491
547590
930230
222060
833753
176006
946035
973762
219615
384298
449914
216282
945519
447120
977601
219189
539888
188077
938083
237042
259768
-9045.27
999398
733495
670181
807172
362780
30625.4
993267
969871
970483
953120
153708
970638
91054
32000.9
1.01253e+06
884154
690534
897379
954585
86064
582000
413681
329865
535302
920657
325692
622441
479698
715919
458209
609791
507697
576714
846775
481406
34432.2
949807
954357
185173
842425
837882
447598
853265
934559
213741
938360
213064
927880
224906
342218
737672
877146
121590
960234
991709
69928.6
681129
735548
474628
890659
400340
726346
703927
845303
232679
938487
871178
690985
392117
134573
955978
987141
139717
161113
949770
728964
175270
984747
830475
835789
745158
84679.2
115298
954072
994047
864725
807143
858049
536380
715536
912683
918404
766436
890828
916101
308165
960096
513187
380282
377889
953710
170550
820953
204773
147064
986424
848436
652858
739071
252313
983378
593031
845294
948863
237335
97850.2
961061
947884
989733
-16753.4
-7309.16
886505
880934
833310
997209
143035
847044
832361
988331
159997
871425
244007
912482
540447
951628
284566
496138
990982
192165
753491
498650
449288
763500
918512
203258
959923
991831
157237
875547
540473
350247
486858
578797
748221
625654
578889
502933
830911
944259
489303
486078
387727
855245
418854
308262
236376
795842
799682
455069
722617
749743
395427
930905
143026
994653
113509
989140
528536
549147
372882
917445
573035
327843
1.01717e+06
55323.7
932143
934785
465287
890459
931243
559755
604852
196758
656855
345319
969823
995951
82444.6
89281.7
369871
169241
962279
997140
145833
839903
345931
997704
970108
78232.4
74603.2
861580
926766
907999
985843
134497
211671
980077
942174
221190
193727
952043
382109
986548
204289
867342
959311
981921
162643
482596
584919
613913
770475
743786
705729
784513
896668
141070
964661
43157.4
995196
951414
120102
965290
65201.7
1.00648e+06
914419
988347
168654
963281
170726
231991
945042
620413
743639
368416
355557
955801
688390
696267
292362
882366
231385
937384
972701
269022
570034
436860
826129
1.01325e+06
29177.9
929475
534968
717978
243241
919820
978522
189798
943582
160088
757487
578964
598182
177001
993528
973050
45183.3
668920
892803
898045
727449
240454
947813
192244
978882
777500
456575
816395
758923
540063
877152
876133
656069
841364
416121
882672
781021
522913
197594
938682
417980
38098.6
1.00517e+06
321889
913468
968820
223726
910427
518183
396288
933580
537026
845548
760814
382312
877362
888920
444418
600363
612194
1.00025e+06
162604
1.02317e+06
22712.5
392925
760393
182764
950815
62729.4
975242
156520
983487
220962
884260
966563
454054
969365
18424.2
413093
441470
879308
595249
577260
220217
1.01621e+06
21381.8
806267
793915
418520
919589
434367
916626
274982
296354
748020
342399
1.02598e+06
15433.9
467585
451996
539405
270950
676468
828424
759519
886086
907009
901629
858131
932148
357288
318570
926372
850029
912718
33821.5
1.00807e+06
476328
928350
633394
348602
633663
578103
884469
368216
430770
742796
626063
595178
478073
959595
479374
934801
638345
442668
653252
786377
965958
41977.6
1.02458e+06
67883.1
227334
950857
753784
243215
985677
818016
647763
797430
938813
550973
763010
527058
224267
755699
544546
588798
529816
732051
669724
865754
943495
178851
977199
179485
872627
946229
988842
-42513.6
-84553.1
874664
627692
949898
206039
622600
646416
170705
934735
258598
719541
631773
135022
992313
622539
827558
275561
842350
783945
876603
606000
970516
391562
766268
896363
881116
402933
917043
374638
611956
529219
946915
98010.5
986103
110904
877629
612194
519021
154979
934267
907936
895116
807744
576989
853369
520475
893187
75089.6
990290
947892
99118.9
275799
977152
788391
334523
955104
946466
290608
923875
345881
956441
172212
62774.5
40601.4
951620
990233
525374
966545
243932
780753
935658
251835
693180
335860
940149
366312
974245
655747
648615
777963
914363
786468
329138
840516
942780
829933
303885
911878
43911.3
955368
51387.3
994043
748441
689577
350371
777468
1.01738e+06
26107.4
264590
925403
690041
258653
930399
249887
828808
808871
791752
855980
942771
182508
553314
859559
1.03232e+06
37840.5
893547
215015
702203
615719
699973
762799
669087
1.03893e+06
-5089.73
660006
708645
-10472.5
1.04063e+06
266171
880530
776613
856458
590843
604414
599686
928343
122614
950592
838624
148586
979193
132183
991860
710378
102569
962896
730417
661804
536766
775721
289875
905400
723126
978893
156640
147736
937148
937407
255470
417571
890777
829378
900561
842808
880536
977397
53781.9
328954
874706
291285
377507
876656
856761
322418
1.02606e+06
31507.1
50919.4
41042.9
994105
956534
936453
711154
666736
935456
231815
855515
900039
241737
571335
185359
969847
429730
848940
942726
437463
930323
842328
939198
421120
902904
294123
254623
855051
672396
407953
575618
605970
916704
750983
905246
892579
598160
942901
654488
869695
744013
833468
834907
505978
281182
688715
858110
503714
825510
991351
198441
637417
457230
613964
196806
959874
404660
703407
217095
940176
976154
233786
334057
747921
1.00149e+06
101564
794324
676433
575536
723249
296785
484394
792816
1.00092e+06
101727
457269
476643
980941
166817
162119
947794
617952
588419
24537.6
1.01612e+06
654001
153819
1.00696e+06
742171
917991
925665
379180
777057
765899
942087
366223
873278
909125
610667
642344
618028
470876
588842
761997
663871
936127
230657
967412
234992
525807
583518
820195
727084
717937
863716
900609
820023
649907
722570
702928
691024
581846
271575
942720
299492
432433
893056
514364
770532
666367
528992
937331
933655
548651
970071
211799
194824
921358
647435
1.0416e+06
-14944.4
925949
288978
318347
956619
16148.4
991907
562476
779557
421533
60264
1.01507e+06
980565
214321
319747
659597
914271
406389
930801
583062
301981
290972
937499
205313
689347
876719
726637
325831
943723
209991
520221
570666
814101
819362
677740
645551
444980
741038
290549
922475
630702
314242
929254
269670
359209
389390
704070
960810
836165
850782
900469
668343
639948
631225
611631
472652
509481
303848
813729
888820
733663
516523
548745
528506
785440
796852
804170
849226
820847
873766
369682
919852
937897
667016
485477
689095
492430
417737
478559
367546
532979
80954.6
992888
821198
547135
399596
700041
580577
875066
859144
521717
754762
752548
685383
885720
492124
893908
568041
933659
474639
879615
771039
842208
729206
714393
606335
847467
790566
702944
389058
529035
923546
213361
576961
616325
569024
569454
934071
857696
360109
770055
703197
750517
637174
208956
975324
940501
222236
926659
463060
429128
899665
414174
953456
663653
809203
520537
374547
948123
335847
843191
819156
992094
129423
1.01686e+06
34527.3
1.00744e+06
141687
259691
809057
498168
1.01049e+06
119580
659901
683437
251636
409562
826894
374597
705930
728579
199809
874004
757141
840349
733901
931143
396719
300281
582078
513686
635651
455088
873004
491329
787249
474167
504433
977951
51358.4
775022
964536
884603
750746
553411
409122
585414
331828
331096
918991
920453
384627
386165
939119
721675
663786
765884
798469
706045
-27951.9
1.00312e+06
775638
793286
322999
292545
611101
1.01588e+06
104658
239756
941533
975932
252683
854197
675767
649770
821214
820342
145153
1.00561e+06
860013
47687.2
5365.38
950021
998845
370656
904110
620529
948120
326357
29328.5
1.03265e+06
993920
207101
257957
164951
943225
731365
24937.7
1.03048e+06
883561
578565
427312
415351
982256
186437
200277
949378
700277
436721
638346
891504
858167
449641
285643
179350
985421
957426
198494
838032
371677
929655
359284
920202
726193
434582
496013
729209
907943
538646
415258
461094
959224
126717
468592
339300
314741
931641
577137
386341
920655
669912
628925
843102
943656
162608
260597
722951
927335
855005
844642
673648
693436
938056
914493
397831
902852
1.02865e+06
64161.3
920586
868137
663173
692327
567862
852543
789419
959631
974990
734276
728564
404805
338935
636875
880513
497621
163727
957237
900403
609735
599653
319078
1.01581e+06
74074.2
431588
408908
177549
952495
774439
770563
854379
711542
882229
411025
418731
1.00279e+06
81164.6
929212
979077
193033
399092
951344
229856
981680
170487
252438
739072
702469
300993
38033.1
1.03716e+06
394352
427553
646844
898848
750914
619116
213900
13987.5
973897
951777
659145
867457
161725
954841
873702
454282
763608
895325
452792
925104
615695
638016
743394
883688
865448
972619
206809
737638
554755
887357
729118
916302
1.002e+06
97659.6
648926
916089
483844
364293
505024
809070
172137
967573
260352
919145
92530.1
1.0038e+06
674678
840984
838727
227953
954648
60812.5
66417.9
976720
749464
311995
321003
942137
838496
839888
880246
954354
262330
924954
941725
458885
470444
925130
393540
844115
269568
929108
855569
439099
989421
129630
752442
765142
279083
256043
911954
893134
775932
965241
251428
824393
854377
279629
919890
262304
977177
593340
851811
487677
852374
496949
566010
554680
466125
826235
467823
804131
921592
854793
839533
961047
122034
90840.2
984600
196827
939555
205105
961879
276295
951868
280242
969441
311091
666091
554395
465971
972769
119877
690569
1.0169e+06
80027.6
609990
727150
1.01774e+06
65941.5
901766
806642
425542
134734
998608
661308
663207
947539
141213
985074
137320
473490
986764
121157
849254
283015
302029
566628
570244
314848
554184
787920
200640
928956
840119
459301
212721
940886
113979
996301
775640
753098
836772
564979
853388
556003
936387
23373.8
1.03719e+06
182650
234852
976908
966946
111398
660038
567897
752173
858115
774395
369337
551315
438828
275997
702618
482891
906595
722857
923188
1.04053e+06
-28930.3
206595
25004.2
956221
942151
277566
61821.8
966993
683731
730805
438552
937960
767103
696708
882784
452293
-14030.6
960489
805175
807101
747111
889516
384316
889913
539401
795603
787548
281363
1.02352e+06
20048.7
235904
955028
995065
83736.8
897722
859256
697313
581460
9522.31
1.01765e+06
960983
179935
455757
767972
266791
950858
205208
864204
915560
375628
928990
542765
942811
232251
632393
310410
726244
718633
831039
431333
886532
622949
428476
834650
789866
901425
442312
895433
450895
944740
761650
895825
462771
751980
580893
737661
707062
457856
868692
840589
578640
741344
390692
874278
8085.03
900112
1.00107e+06
38281.5
996304
496832
794247
966252
206006
144041
965385
610525
749327
159489
956085
372313
657528
127087
960518
733935
883763
626196
940721
62940.4
72111.8
984926
942469
110790
128706
985837
533420
905362
325953
953295
404017
734474
559692
642748
880248
728042
975875
363489
379814
927981
185684
622433
864031
855577
922548
446143
657328
134687
103966
948695
986807
132493
949655
403001
381179
422621
894474
600464
891434
892759
1.00133e+06
148943
873211
15858.4
1.03579e+06
968668
99663.5
948232
178996
892400
677692
667092
525887
924239
467452
459911
80123.4
1.01962e+06
470102
455845
292400
64905.3
1.03051e+06
647334
865580
121428
960745
924615
870278
532849
910290
558519
843828
755985
756757
994202
43877.7
573539
555509
542069
822823
642236
274453
708447
797865
735196
565593
729718
993750
193568
180526
959180
971416
55199.5
171457
976774
623664
641750
733141
791555
567625
739037
228754
837183
184655
941770
564556
206012
933168
232883
761938
758498
629859
747699
910895
205475
985091
952175
195971
425334
897843
776204
211285
264213
737919
914269
171449
952918
813459
861525
349318
835170
472173
982173
16519
888483
862240
360000
399504
871863
942348
361824
395449
932462
921317
998187
33866.2
884487
775272
720907
461812
990461
98065.2
42671.7
1.03112e+06
863947
738465
889952
917901
934721
243072
355619
968036
227091
284127
760096
286883
769899
934421
275444
397739
405492
962799
238855
837466
409599
718509
930469
448241
943753
190420
852506
456499
949885
231978
714111
975205
211763
597862
793486
525327
47118.3
981997
483571
794212
803927
882334
163803
944430
146576
977680
973065
713691
871059
447035
498592
678092
638905
711543
738085
994306
156789
182458
965828
970994
843225
890689
979490
295378
951246
155917
284048
191785
993175
538569
861730
993416
22070.2
895842
910355
981322
76394.2
232031
969809
935248
225604
904962
276376
275278
200029
948191
58039.9
66293.4
987081
945129
871478
546626
787725
760195
441551
904843
756065
435886
687019
368201
443045
869302
323860
919412
406527
891824
675424
914835
878721
543363
516158
996611
105210
340286
246427
755436
440657
449028
749534
989732
34711.1
324371
722654
515180
390041
904470
457984
-5942.67
1.02745e+06
833410
879399
109207
984496
731371
910309
435432
956393
942224
183842
873083
961735
191246
985003
510203
839146
939374
327796
982414
314563
833313
963573
213206
460931
945473
757842
969174
218143
714656
157544
669145
407107
411248
715935
508615
328271
326728
836436
777411
868168
884370
868450
895552
765107
462099
784454
901027
233060
904322
295268
913570
286900
953465
270593
700983
685688
274947
142650
950412
345506
80221.9
995770
418414
761812
358786
822468
914814
900549
168952
984112
628373
676290
617126
777757
769017
870875
930885
220413
328255
968821
229755
972863
866831
450026
748745
933545
537528
218820
465687
841622
853621
844451
247615
915905
293920
446197
442163
459803
590398
925452
264784
831571
265315
958523
733611
964249
92846.9
994537
65208
200496
945672
819847
626929
882584
957046
908317
284399
937105
288032
931302
250941
962415
964661
244505
961541
917644
767597
600008
237485
765525
274181
736159
385572
971306
260667
925911
853632
395988
910159
314579
303049
678767
926833
458569
186723
983650
954054
195690
902933
1.04009e+06
2987.65
742438
803008
172303
981284
942740
341773
450634
417514
941159
551320
590153
772636
761746
845758
149354
935781
975469
585584
767885
821761
857557
269565
919500
933894
540374
874846
447219
994497
110044
469139
963036
133915
153797
970949
1.00302e+06
123130
836781
472992
66070.6
1.00142e+06
865453
423176
701342
401711
944235
989925
175779
452637
962982
212533
907332
868397
727697
1.02769e+06
58332.3
306948
456376
454399
466744
476782
910559
95265.7
1.00646e+06
860804
864299
900401
350757
654575
851452
601633
860189
300291
244719
600906
190378
955134
988763
165541
650059
952456
201251
326871
172259
984630
853763
722018
712581
886072
348820
670433
935655
928852
944464
990911
9004.57
63391.2
256275
864577
884099
360722
395733
920739
884408
950874
243430
198091
984564
677524
951842
304772
877908
951668
231701
203235
985010
666312
941033
227191
974431
275414
931381
267451
960021
271028
726185
916963
170531
966042
831777
912896
710550
862169
970352
284274
972452
964535
118333
995609
142741
347611
941714
893712
301422
938664
841687
973030
317829
678097
782764
594381
555453
631135
107108
968024
896830
849476
968162
124916
99595.2
974849
963299
198494
680808
637756
845344
340825
933694
830960
496877
966884
363634
517811
958655
228165
776548
849992
341326
911568
378898
795261
510216
399329
777155
239397
969298
262449
946167
1.01598e+06
33034
566497
187254
944960
351211
825436
298205
860980
404334
436096
730725
300469
173185
945437
871267
422945
832862
834370
386606
941921
856453
798471
403627
938357
209484
422446
881039
859303
396957
923807
398211
877265
870599
214863
935176
28464.6
1.03169e+06
12057
1.02644e+06
563853
980094
54913.4
886604
879364
895821
899772
931858
846951
827176
637456
675375
293168
628839
623353
838254
808893
821383
750325
924660
670215
286241
158995
991659
701420
296373
141637
997705
954772
259949
261741
990107
359604
900705
229848
243003
936916
970692
546035
70583
983008
943110
77769.6
905282
447814
929746
437636
901238
442810
763393
919434
459464
723409
848287
905799
457892
151288
968385
873802
138504
1.00278e+06
554362
693880
677954
962190
40615.6
780061
801576
775630
774504
544660
508309
779933
833168
1.00909e+06
41941.2
17862.2
1.02138e+06
17431.6
992863
658036
776717
703912
477402
531068
952643
951344
918949
793076
804530
899298
809631
792017
847341
680267
242574
658751
860142
848843
979684
681678
660841
301697
818984
422851
942718
437194
857694
463766
373176
145997
960108
230670
148545
963614
606265
962944
205131
950981
237216
928050
891602
735925
853688
436601
588764
45510.9
1.03809e+06
553761
495613
448187
814985
983663
977398
504262
442908
553851
531288
871746
514780
819375
555340
754380
960699
244185
944147
222749
947449
279353
228642
954446
774469
983725
185449
912601
738165
675949
663711
867685
607086
42543.3
1.03841e+06
857639
819415
810376
140691
966698
1.00262e+06
113212
623171
702012
209156
244842
882241
765325
812495
738334
859359
1.00953e+06
110195
108681
1.00141e+06
1.01567e+06
73509.4
28971.5
1.03648e+06
685205
881409
423058
392894
907446
277585
470313
531235
397433
474590
515755
845387
931928
352892
980439
156330
807126
977791
40927.3
869749
969064
124868
287701
838404
148775
981648
781426
281365
304794
-7601.57
1.02349e+06
783955
1.0282e+06
4487.03
435953
97808.8
1.02689e+06
64477.4
1.02838e+06
923818
911325
550879
897936
875763
726470
77763
62046.6
948559
987165
191822
953996
869459
462432
535493
870275
851181
969688
953888
925450
480594
487362
999503
143141
940135
938907
942179
166134
160567
980569
941871
127064
986201
207389
181120
288072
776884
725971
298546
519176
868885
856311
532780
316712
453396
496907
544445
716180
718236
690489
668483
177511
848753
195000
648928
558350
477342
837189
859805
719184
504324
301071
953445
210793
669654
203816
989039
953119
206030
861165
226397
989197
136333
990447
719251
748638
794100
980939
943451
189303
210768
260733
289119
542625
562494
309805
835377
803029
606663
893784
1.00693e+06
133529
454714
334639
880711
853843
664370
439370
481624
517496
776863
561376
546036
767055
510734
858774
847684
188251
980063
421015
906561
509115
905935
405962
928994
484576
901381
664707
951220
167430
937743
560000
208956
844104
901232
924869
561114
911103
872448
816720
301092
667775
569520
518946
575592
657903
751572
346290
948360
354378
914786
558747
919923
785745
771071
479714
269184
938216
411410
961169
249239
374420
843719
525761
507167
669074
887029
754607
587754
139702
958402
666802
389579
527361
902868
952560
562709
625091
654240
943048
806634
860068
540997
692927
247680
608904
638937
950492
939754
204554
977220
187948
274466
269793
595484
644211
90538
982482
99480.8
940870
606854
788691
792848
146403
940097
131921
979068
756688
586183
586739
360650
761736
859701
558641
558010
245711
948320
979581
147521
161845
940378
974131
215499
945432
649293
132436
983521
169297
963438
835412
817243
831900
850655
856605
451408
558277
666034
777679
523792
839255
966232
353782
850835
849345
364223
934794
916212
893457
860379
495452
893972
911303
783722
613979
644740
857812
766887
839397
827015
632540
)
;

boundaryField
{
    frontandback
    {
        type            empty;
    }
    simetry
    {
        type            symmetry;
    }
    inlet
    {
        type            zeroGradient;
    }
    outlet
    {
        type            fixedValue;
        value           uniform 0;
    }
}


// ************************************************************************* //
