/*--------------------------------*- C++ -*----------------------------------*\
  =========                 |
  \\      /  F ield         | OpenFOAM: The Open Source CFD Toolbox
   \\    /   O peration     | Website:  https://openfoam.org
    \\  /    A nd           | Version:  7
     \\/     M anipulation  |
\*---------------------------------------------------------------------------*/
FoamFile
{
    version     2.0;
    format      ascii;
    class       volVectorField;
    location    "0.2";
    object      U;
}
// * * * * * * * * * * * * * * * * * * * * * * * * * * * * * * * * * * * * * //

dimensions      [0 1 -1 0 0 0 0];

internalField   nonuniform List<vector> 
2700
(
(-559.159 -185.054 -1.14066e-13)
(-607.097 -333.642 -5.66037e-13)
(-967.154 -870.822 5.11891e-14)
(-481.219 11.663 2.73525e-13)
(1023.2 -549.461 -3.07832e-13)
(-1026.62 -486.822 -5.76768e-13)
(14.2515 152.124 -4.3374e-13)
(-1417.66 -510.013 1.29865e-13)
(1145.53 -269.835 3.78559e-13)
(-507.326 125.791 -4.86391e-14)
(-940.569 160.734 -1.62606e-13)
(-69.3118 135.824 -1.40493e-13)
(531.881 -148.814 1.8364e-13)
(621.886 -241.915 0)
(-409.219 -304.131 3.95636e-13)
(2740.41 483.913 -4.4477e-14)
(-1334.07 -367.882 8.41799e-14)
(1081.33 36.305 -2.4514e-13)
(909.42 -33.3801 -7.56421e-13)
(-1011.73 -161.675 -5.27563e-14)
(735.331 79.5125 -4.66188e-13)
(56.9451 430.193 1.48176e-13)
(-1201.08 783.191 3.67302e-14)
(1285.89 866.289 0)
(-470.361 99.2154 0)
(531.965 -308.042 6.18062e-14)
(-612.166 464.773 -2.96727e-14)
(-736.48 -1103.96 0)
(368.417 420.697 0)
(1737.67 2.02754 0)
(-742.161 326.974 4.78299e-13)
(-885.103 -560.325 -1.23858e-13)
(-372.853 -247.696 -2.73315e-13)
(-775.817 697.682 -1.64532e-14)
(-50.3818 609.683 2.97977e-13)
(-465.223 -370.496 0)
(-892.011 921.873 0)
(-928.111 -621.568 1.16674e-13)
(-1286.31 -226.751 0)
(-1189.04 164.094 2.24214e-13)
(874.552 -1030.44 1.78173e-14)
(-289.046 -455.546 0)
(-1026.46 -183.728 2.24897e-13)
(312.182 815.466 -8.05785e-13)
(-492.596 -922.146 9.85274e-15)
(-980.75 -330.09 0)
(-922.255 1073.26 0)
(866.649 -147.148 -7.44591e-14)
(-635.338 -85.0668 6.009e-14)
(-184.956 436.727 9.42012e-14)
(139.528 -311.039 -2.15034e-13)
(668.305 -32.3342 2.11797e-13)
(754.486 -197.293 0)
(-72.9844 726.56 6.2348e-14)
(-692.628 207.421 4.7249e-13)
(900.241 -631.423 1.41755e-13)
(-568.561 -172.144 -1.5739e-12)
(-10.2855 -1231.22 1.4172e-13)
(850.393 -420.771 -2.45708e-14)
(-773.403 255.551 0)
(-656.751 609.734 -7.89736e-14)
(-1032.52 896.177 3.39183e-13)
(-748.423 -243.415 5.36447e-13)
(-10.8141 -4.06336 -1.02038e-13)
(-4.96173 323.448 0)
(754.812 267.56 0)
(1922.84 140.752 1.64084e-13)
(-80.3102 -136.81 1.16028e-13)
(992.796 -657.989 1.72745e-13)
(1985.94 758.841 3.43939e-14)
(268.56 -82.8216 2.31447e-13)
(935.107 -761.531 0)
(-2385.67 -36.648 0)
(-869.183 281.819 -2.57632e-13)
(-1539.14 -261.726 -2.62297e-13)
(-523.07 -251.827 1.2887e-13)
(-1652.27 1058.93 -5.00174e-14)
(1257.21 -820.239 -3.37743e-14)
(-383.21 -194.891 -7.20759e-13)
(396.347 -808.346 -4.07391e-14)
(-891.27 -626.591 0)
(-1799.83 -936.771 0)
(-86.5299 455.336 4.22409e-13)
(-937.545 -431.882 3.1183e-13)
(263.016 895.27 -6.18438e-13)
(-143.504 452.768 -7.60937e-13)
(1605.63 203.527 -3.96845e-13)
(1160.53 195.301 0)
(-1822.14 -793.135 6.54528e-13)
(624.596 56.7755 0)
(-1628.18 -610.647 0)
(961.534 722.977 -1.71166e-13)
(-785.432 227.535 2.55905e-13)
(-2941.69 844.015 -1.54755e-13)
(-1728.11 -1012.4 -1.25809e-13)
(-1069.34 591.982 -2.19131e-13)
(-760.141 -796.726 2.56027e-13)
(154.133 -121.106 6.61621e-14)
(472.599 -199.799 1.01758e-12)
(-508.2 -368.303 3.4382e-13)
(175.172 993.703 0)
(1868.29 -1054.4 2.2236e-14)
(1159.36 16.5486 -1.67754e-13)
(-894.801 462.504 2.30745e-13)
(311.728 825.595 0)
(1222.87 -129.111 -1.78841e-15)
(-501.353 654.503 -6.4821e-14)
(-2330.24 -1259.43 0)
(-2171.02 1009.02 6.16634e-13)
(-2367.27 528.69 -5.39849e-13)
(2111.59 27.357 -3.90546e-15)
(-472.017 -520.949 0)
(-1258.24 526.71 0)
(209.864 -70.3072 -3.21463e-13)
(-639.632 224.988 4.92313e-13)
(-1140.53 -369.136 0)
(-559.45 276.218 -9.15572e-14)
(723.282 783.819 2.72414e-13)
(-831.44 -723.421 -1.98453e-13)
(1440.01 -235.131 0)
(-143.639 323.269 -3.0638e-13)
(-1848 -302.075 2.34193e-13)
(917.771 400.653 2.18141e-13)
(-1339.71 -314.843 0)
(-141.805 -411.53 1.23458e-13)
(1455.3 -131.984 -2.36649e-13)
(321.925 -933.391 7.11075e-14)
(-471.067 564.608 -1.66887e-13)
(-8.60823 282.598 -3.89356e-14)
(2693.36 2150.9 -4.92132e-14)
(-517.72 -566.85 -4.84108e-13)
(-534.039 655.794 -4.46596e-13)
(2680.55 -2015.07 -1.36441e-14)
(967.434 -278.968 9.22284e-15)
(-475.713 -73.9304 -4.14809e-14)
(-436.264 -434.318 0)
(265.294 -413.675 -5.13655e-15)
(815.199 948.211 4.68387e-13)
(-1524.5 -442.884 -2.85922e-14)
(-832.069 284.156 2.34074e-13)
(773.382 -19.0721 0)
(-741.058 -168.852 -2.76208e-13)
(-2342.64 82.2116 0)
(-833.774 718.821 0)
(-952.78 -862.454 -2.64748e-13)
(-431.06 -162.144 4.21455e-13)
(1971.9 1268.66 1.42297e-13)
(-12.2178 -209.053 0)
(822.938 1046.27 -3.88393e-14)
(157.398 -108.429 2.5e-13)
(583.129 450.729 4.55292e-13)
(673.953 763.03 -7.23454e-14)
(1927.69 -127.458 2.83574e-14)
(1522.55 -1024.79 -3.54399e-14)
(1069.93 959.952 2.23676e-14)
(-530.534 250.557 2.65516e-13)
(-11.3697 599.083 2.0525e-13)
(-506.2 -200.651 -2.82302e-13)
(1124.98 -1205.48 0)
(-1004.83 1391.09 -1.42122e-13)
(239.453 82.8408 6.5772e-14)
(-706.076 124.319 0)
(-265.778 -220.953 4.49455e-14)
(584.206 -552.473 0)
(-1020.89 1215.44 0)
(76.8832 -844.756 -6.37626e-13)
(-1785.54 273.422 7.42373e-13)
(-512.814 279.518 0)
(-358.68 30.6016 -2.55395e-13)
(-238.286 -234.514 1.0141e-13)
(393.907 -428.896 0)
(46.4991 -991.821 -5.56722e-13)
(-330.384 -113.263 2.52358e-13)
(-697.157 65.6801 0)
(391.754 795.881 0)
(1037.35 143.26 0)
(126.24 699.401 -2.66053e-13)
(736.522 -1115.64 2.59357e-14)
(-2587.24 -2329.37 0)
(268.839 842.776 0)
(853.03 467.718 4.07908e-13)
(-868.472 370.595 0)
(-373.22 -956.24 -6.01674e-14)
(-339.716 1228.84 5.85118e-13)
(-1150.13 -54.6228 -2.60809e-14)
(-1618.13 734.022 9.00583e-14)
(-2232.31 -739.892 -1.9525e-13)
(867.476 -349.322 -2.98168e-14)
(558.934 319.108 -1.46922e-13)
(569.539 -1139.88 3.1295e-13)
(-2312.51 -245.678 2.43705e-15)
(99.7404 -931.033 -1.80218e-13)
(1696.17 98.6898 0)
(-1262.93 444.707 4.12889e-13)
(358.428 1482.95 -2.35842e-13)
(-606.075 -616.375 1.60611e-13)
(2453.23 -135.518 2.08686e-13)
(965.613 284.093 3.59791e-13)
(-351.617 -253.277 2.06432e-13)
(2633.3 800.095 -1.38118e-13)
(-18.1325 -2228.1 3.52047e-14)
(-169.505 1311.55 8.33877e-16)
(45.9633 660.934 -6.88565e-13)
(-1732.71 310.177 -4.54857e-14)
(-915.694 490.417 -2.02382e-13)
(215.092 331.408 0)
(400.052 -389.73 1.6714e-13)
(1502.88 -123.085 3.22253e-13)
(1123.54 540.185 -2.34141e-14)
(-53.1153 1318.33 1.89651e-14)
(427.669 -137.212 1.03786e-13)
(-2462.26 296.922 -8.46024e-15)
(76.3108 229.62 -1.33183e-13)
(-2750.11 513.749 3.13808e-14)
(-2618.62 -98.8744 0)
(-243.106 433.296 -3.18015e-13)
(-51.2681 116.19 -1.73952e-14)
(855.913 -1385.25 0)
(-185.092 374.103 -2.37778e-16)
(-329.814 -230.175 0)
(3286.41 691.933 0)
(791.335 -52.9887 0)
(623.819 304.47 0)
(1268.11 -315.263 1.88819e-13)
(-1015.62 -780.938 0)
(-1444.24 -69.3571 0)
(1895.36 -478.659 2.35428e-14)
(917.61 -344.057 0)
(-1940.67 764.587 -2.1179e-13)
(1086.58 -567.621 -7.11723e-14)
(-166.203 115.003 0)
(72.25 -655.922 0)
(1145.09 -480.124 -2.19549e-13)
(-1279.79 -693.957 1.12256e-13)
(238.101 627.642 -3.72255e-15)
(-811.67 501.242 -4.80995e-13)
(-650.626 -504.833 9.60324e-13)
(-170.275 -856.519 -7.10602e-14)
(601.044 -315.695 -6.77238e-14)
(-747.689 715.454 -6.25952e-13)
(-704.603 1328.03 -4.31216e-13)
(1529.04 574.162 -9.12009e-14)
(-839.499 -646.073 0)
(-383.424 377.116 -3.05753e-13)
(-1627.42 -73.3746 -1.09348e-13)
(-459.915 663.979 3.7728e-13)
(-2686.5 -210.846 5.10004e-14)
(-2832.18 -545.264 6.81435e-14)
(-82.4295 646.071 9.58043e-13)
(-141.138 -383.24 5.27578e-13)
(37.8692 -273.727 0)
(947.923 -161.099 1.84141e-15)
(-552.855 -179.527 -5.29032e-13)
(-1057.41 729.463 -1.49217e-13)
(715.149 -44.8246 0)
(1436.17 148.681 2.05233e-13)
(-310.586 -326.269 2.74074e-13)
(439.704 1059.03 0)
(1437.4 -316.249 -1.26944e-13)
(-1407.39 -299.08 0)
(-1015.09 -349.134 -2.49828e-13)
(1893.09 -123.853 0)
(704.679 -247.968 -4.24891e-15)
(468.059 -1554.36 -1.01879e-13)
(1201.83 -66.9122 2.42116e-13)
(-636.319 -302.226 -6.18326e-14)
(230.247 259.363 -5.08488e-14)
(462.334 499.109 0)
(1114.17 -63.2199 -2.66596e-14)
(601.746 -1063.49 9.1545e-15)
(-640.988 287.065 -4.11431e-13)
(328.579 7.00712 -4.08491e-13)
(-884.841 342.049 0)
(-1290.78 513.218 -4.57691e-13)
(1044.09 -994.739 1.26893e-13)
(-553.644 -29.8426 4.92104e-13)
(-86.8007 -111.065 0)
(205.597 -176.783 6.04397e-13)
(-672.973 169.751 5.73859e-13)
(1014.29 714.571 0)
(-176.632 183.459 5.58102e-14)
(251.554 875.386 -1.41166e-13)
(-178.033 973.413 5.49698e-13)
(-243.445 -687.88 0)
(2948.12 -221.727 2.41976e-15)
(1891.09 -747.686 2.54875e-14)
(657.525 26.6725 6.17744e-16)
(874.836 163.426 2.21338e-13)
(-395.068 491.482 0)
(97.0141 794.14 -1.31544e-13)
(286.427 -1495.16 -1.08966e-13)
(408.036 242.129 1.74523e-13)
(495.064 -90.5982 -5.41109e-13)
(314.947 615.85 -4.53186e-13)
(-560.363 -534.237 1.22204e-13)
(-916.919 75.2 5.46184e-13)
(-24.8416 101.283 0)
(-923.054 -903.918 1.7778e-13)
(-2315.57 -530.686 -3.2447e-13)
(-125.157 523.001 -4.38766e-13)
(849.36 347.506 0)
(-2261.49 -1473.26 1.41488e-13)
(-140.816 518.776 2.39683e-13)
(422.725 652.884 0)
(-1277.8 -57.5098 3.42291e-13)
(-368.526 526.652 -2.79273e-13)
(1498.08 -624.852 -1.55488e-13)
(-816.622 -75.2884 2.13701e-13)
(1635.01 106.693 0)
(1150.94 -129.447 1.08485e-13)
(-635.771 66.9691 0)
(-549.852 -254.526 4.97691e-13)
(1420.29 -408.821 -2.93723e-14)
(1049.84 -748.532 0)
(-1327.01 -244.47 -3.57601e-13)
(2613.17 50.7912 0)
(-2067.46 271.264 -3.13256e-13)
(-245.732 473.783 1.20742e-13)
(727.708 134.118 5.17483e-13)
(844.225 -74.0529 0)
(-1059.09 450.473 -2.93464e-14)
(-506.407 -1123.67 3.27999e-13)
(-761.31 -501.626 -2.13538e-13)
(-1215.44 -1034.43 -1.06696e-12)
(-1333.06 -343.917 0)
(-185.249 265.562 -6.73156e-15)
(1554.32 1453.57 -1.76325e-13)
(216.149 849.769 3.8597e-13)
(-1024.39 -409.439 -2.18881e-13)
(1007.64 1132.3 -5.92441e-15)
(330.948 -100.731 5.2942e-14)
(632.575 300.087 -4.52019e-14)
(-312.191 228.242 -3.0865e-14)
(231.484 -73.4265 2.2422e-13)
(-1402.2 117.591 3.47575e-13)
(80.4267 740.741 -1.69482e-13)
(-195.003 151.706 0)
(2069.12 186.168 0)
(-1033.88 162.493 0)
(1173.58 235.237 -2.42143e-13)
(232.596 -1118.21 0)
(1033.79 -614.5 5.95006e-13)
(640.708 -1045.33 0)
(-623.304 -561.8 2.50356e-13)
(145.082 80.3093 0)
(-88.6401 159.954 7.57113e-13)
(-315.762 379.602 -4.70848e-14)
(1185.87 -726.935 0)
(82.8752 -876.672 0)
(279.309 1062.3 1.37313e-14)
(2353.6 555.412 0)
(553.786 552.758 0)
(119.406 1106.72 -4.29628e-13)
(256.702 -181.037 -4.88255e-13)
(1039.07 468.28 0)
(-1448.81 84.1693 -1.54224e-13)
(840.675 478.336 -3.0298e-13)
(320.094 200.197 -9.86617e-15)
(1253.95 351.774 -1.15522e-13)
(2107.44 6.79737 -1.34449e-13)
(-467.695 698.927 -5.33031e-13)
(-498.479 -550.789 1.47993e-13)
(-985.031 40.4726 -3.707e-14)
(-1079.71 -621.014 -2.05705e-14)
(413.769 -1105.05 -1.70533e-13)
(-90.3155 -178.638 5.79917e-15)
(-509.01 760.084 4.76228e-15)
(-454.174 -564.806 2.77574e-13)
(894.548 1185.42 0)
(249.053 238.039 0)
(-471.433 1442.17 0)
(-129.195 -1113.33 -2.69255e-13)
(-493.722 972.498 2.63343e-13)
(-740.088 55.9903 2.55444e-14)
(-1071.02 -1551.61 4.11414e-14)
(-254.175 46.3954 0)
(1239.13 72.5039 -2.39237e-14)
(196.384 -404.838 -1.94711e-13)
(1405.27 14.5708 4.27003e-13)
(877.899 343.995 0)
(1122.37 922.516 -1.41106e-13)
(-682.598 -409.255 5.01684e-13)
(-639.887 -28.8757 -4.32927e-13)
(165.16 -820.662 -7.63749e-14)
(-939.64 714.5 1.10173e-13)
(-888.891 113.051 8.77366e-13)
(-63.1905 -226.125 2.35663e-13)
(-482.587 -57.6125 0)
(-325.363 -1487.57 4.68649e-14)
(1117.6 -294.334 0)
(339.664 232.235 2.06028e-13)
(1640.16 144.166 -6.88256e-13)
(1305.76 -313.117 4.97607e-14)
(688.36 -102.811 1.40551e-14)
(616.328 645.882 -1.38989e-13)
(1028.63 526.553 5.23755e-13)
(-103.427 1801.18 6.95688e-13)
(-974.978 702.366 -6.58643e-13)
(761.537 17.936 0)
(1000.49 904.141 2.75696e-13)
(477.893 -71.4798 0)
(136.801 -835.665 1.57399e-14)
(-304.674 267.045 0)
(-283.941 7.54864 1.65552e-14)
(10.6102 -113.289 -2.63785e-13)
(-416.02 321.45 1.35884e-15)
(-1352.83 -456.013 -2.17405e-14)
(-271.717 302.733 0)
(1292.11 567.755 0)
(-528.853 -68.0738 2.98589e-13)
(-992.108 -278.307 -4.76281e-13)
(-985.32 163.282 -1.41387e-13)
(1149.2 -101.335 0)
(-744.914 -536.019 5.48414e-13)
(401.824 339.502 8.17543e-14)
(-913.333 -189.576 1.18499e-13)
(456.396 801.087 0)
(491.812 -703.229 -5.43361e-13)
(-901.977 -1549.26 -7.90627e-13)
(-1459.37 1422.3 0)
(-261.671 -970.84 1.60811e-13)
(-1326.02 64.1805 -5.53867e-13)
(95.0021 164.732 -4.2809e-13)
(-1909.69 422.883 -1.74458e-13)
(1011.98 -925.771 1.21331e-13)
(-685.177 -160.724 0)
(-424.701 -1270.57 1.05647e-13)
(-254.51 467.069 4.89758e-13)
(-311.891 -351.508 5.52416e-13)
(1411.7 844.374 -1.39458e-14)
(235.223 961.071 3.93332e-13)
(1470.73 150.799 2.20204e-13)
(1526.46 430.64 -5.47479e-13)
(-142.11 448.626 1.03069e-12)
(115.557 -1427.82 0)
(35.4806 760.474 -1.87539e-13)
(100.597 -308.022 0)
(-989.757 330.338 0)
(1675.35 -293.689 -5.85953e-14)
(-650.19 -232.709 0)
(-186.105 -184.853 5.17892e-13)
(2017.98 478.964 0)
(-291.298 374.041 0)
(2152.77 -813.835 1.19937e-14)
(-1055.58 526.697 -1.156e-13)
(1374.12 -259.928 0)
(714.921 340.445 1.58208e-13)
(-1413.46 1486.19 4.60351e-14)
(310.036 888.527 -2.8435e-13)
(286.656 872.844 -8.92364e-13)
(43.7139 -159.542 0)
(1086.66 -623.839 2.64263e-13)
(-635.932 -205.186 0)
(-609.044 -659.96 1.36594e-13)
(-427.803 352.128 0)
(-2636.48 -976.113 -6.93062e-14)
(-1158.23 96.2856 0)
(-1829.83 -218.949 0)
(-1123.98 -190.066 9.0043e-13)
(533.888 -434.538 -2.96614e-13)
(-118.491 548.882 -3.37925e-14)
(422.479 75.6547 1.40958e-13)
(-1139.54 166.294 0)
(-999.579 -222.488 2.5376e-13)
(925.885 433.44 1.83543e-13)
(121.343 -106.656 -1.96822e-15)
(-1024.02 -101.122 0)
(-1652.01 -139.89 0)
(624.037 963.439 1.85887e-14)
(1149.37 -431.126 2.54588e-13)
(-464.47 350.724 1.89063e-13)
(845.231 -373.552 -2.57884e-14)
(-198.016 117.073 -8.09603e-14)
(-983.992 -236.886 6.70042e-13)
(-1144.83 625.896 0)
(230.984 461.315 0)
(-128.131 1025.18 2.3363e-13)
(-172.234 329.358 9.19884e-14)
(-420.478 147.103 2.08348e-13)
(-172.262 335.64 5.90301e-13)
(-1353.67 268.953 0)
(422.093 -642.233 0)
(316.208 -235.538 3.51428e-13)
(-343.473 -370.57 0)
(-799.234 721.079 0)
(39.9212 -1069.77 -2.98762e-13)
(-411.6 315.006 -2.47192e-13)
(-147.519 322.512 -4.95122e-13)
(-1326.43 -1382.43 0)
(-790.995 2.0543 8.72703e-13)
(-1097.39 -240.073 -1.0604e-12)
(109.882 -1167.32 -1.4429e-13)
(1229.88 -261.347 -3.02195e-13)
(-239.518 710.461 3.17607e-13)
(942.948 625.7 -2.84979e-13)
(-1554.41 1403.63 -5.07137e-14)
(182.259 603.906 -1.8159e-14)
(-23.077 -1169.23 -6.70369e-15)
(-1738.85 710.141 0)
(-1057.36 290.627 -1.87991e-13)
(-867.585 -2080.67 -8.03974e-14)
(-12.4479 929.458 -2.58276e-13)
(302.346 -150.129 0)
(303.186 1124.59 7.71556e-13)
(277.231 964.408 0)
(-91.2997 -867.374 0)
(-474.934 528.243 2.84279e-16)
(1430.36 366.479 -1.14598e-15)
(33.7711 441.654 -5.24279e-13)
(511.658 -344.658 5.44928e-13)
(-350.982 1293.65 2.49838e-13)
(1092.76 -174.5 -7.59104e-17)
(-221.916 167.437 2.48093e-13)
(399.046 433.408 5.66799e-14)
(247.463 1301.83 -3.87295e-14)
(425.351 175.575 -1.93634e-13)
(-1316.56 -146.606 -4.01677e-13)
(1296.57 -1184.97 3.52564e-14)
(-44.9557 -752.462 0)
(16.1903 -189.856 -2.3348e-14)
(-482.393 -249.144 3.84009e-13)
(-677.067 -269.168 -2.74985e-13)
(-1790.15 -166.784 7.23653e-14)
(1576.91 -92.5164 0)
(-928.624 -475.558 -1.4781e-13)
(-323.138 -227.104 0)
(238.869 735.56 0)
(504.256 356.694 1.11988e-13)
(-1461.38 489.992 -2.09013e-13)
(956.682 -751.007 -1.25937e-14)
(-133.227 310.562 0)
(1268.44 -1618.92 1.10707e-14)
(969.85 53.0701 1.9714e-13)
(1867.94 360.009 -2.21855e-13)
(-427.068 585.005 4.31823e-14)
(1007.61 399.179 -4.60877e-14)
(-2420.72 382.562 1.02181e-13)
(140.034 -378.638 4.44854e-13)
(7.63897 301.968 -2.10095e-13)
(544.682 -187.338 2.21228e-14)
(-1313.07 -213.878 0)
(-766.12 190.1 0)
(-1362.95 488.398 0)
(-317.353 -110.768 6.01296e-13)
(-478.218 1032.1 -8.19559e-16)
(311.957 -1139.69 1.57758e-13)
(-1134.12 -269.306 -1.78789e-13)
(-943.761 1105.27 0)
(294.353 -359.027 3.07834e-13)
(-1636.81 -1118.8 0)
(426.404 982.424 0)
(1510.22 -498.3 0)
(-709.768 477.966 -1.33334e-13)
(622.672 -544.632 1.57996e-13)
(944.343 673.842 7.63487e-14)
(3105.1 1372.61 0)
(-859.296 5.37758 -3.24979e-13)
(-317.37 -385.278 -4.62749e-14)
(905.024 186.074 -2.20952e-13)
(186.435 26.449 -8.88772e-14)
(623.493 766.702 -1.67897e-13)
(2395.62 1081.48 0)
(-34.9179 -469.693 6.4684e-14)
(-1341.81 618.241 0)
(-1295.23 758.234 -4.57526e-13)
(-3403.3 -369.561 0)
(-624.581 31.3618 -5.2645e-13)
(323.514 23.6203 -8.60572e-14)
(103.219 678.924 0)
(-76.3083 646.122 1.74636e-13)
(1960.57 79.3529 4.81338e-13)
(-169.856 1236.11 0)
(204.502 -216.954 2.78972e-15)
(884.268 -593.069 5.49901e-13)
(-1990.47 458.541 0)
(482.945 -431.943 2.00983e-14)
(-590.73 604.036 -3.01457e-13)
(725.19 -1700.98 -1.60516e-13)
(197.451 586.657 -2.18421e-14)
(-561.897 -512.313 3.16246e-13)
(191.455 -773.745 3.51993e-13)
(-53.2818 438.576 -4.67193e-13)
(222.659 -371.558 5.90111e-14)
(-1687.55 -1384.46 1.60716e-13)
(715.871 -167.717 0)
(-1174.25 235.987 0)
(-669.365 -98.1101 1.60501e-13)
(-1302.81 -665.204 -1.34729e-13)
(-1231.18 272.094 0)
(-347.125 1262.95 7.48346e-14)
(-3.73595 711.933 -4.25079e-14)
(-53.4061 317.294 5.80344e-14)
(-1260.73 1077.81 0)
(174.385 -173.209 1.0232e-13)
(480.084 -473.252 -3.23288e-13)
(-736.165 194.07 -6.39671e-14)
(170.486 -691.935 0)
(-720.259 -218.07 0)
(146.28 -16.594 9.18787e-15)
(108.365 550.105 1.56658e-13)
(-377.906 1047.69 4.09001e-14)
(-449.158 -882.013 -3.24203e-13)
(3029.19 -1695.51 9.60766e-15)
(2886 -236.979 -3.07925e-14)
(-356.24 -125.04 9.42473e-14)
(-1109.74 -251.587 -1.60415e-13)
(733.729 381.96 0)
(1385.21 1090.54 1.93694e-14)
(-1212.43 -169.395 2.81489e-14)
(-456.985 -120.573 2.5939e-13)
(-187.743 -776.907 1.74362e-14)
(-415.099 -41.8561 -4.56576e-13)
(-2716.44 -165.772 1.01854e-13)
(621.088 692.971 0)
(-1114.95 924.873 -4.18573e-14)
(-590.767 384.674 -6.19436e-14)
(-305.238 -703.437 0)
(-1410.4 735.042 1.70439e-13)
(-713.66 -248.359 -3.37866e-13)
(-482.733 -44.5256 1.07673e-13)
(289.271 -312.019 1.12957e-13)
(-1053.2 695.099 -4.95569e-13)
(-32.709 -8.57403 -3.38573e-14)
(167.182 -204.251 0)
(692.426 -151.62 0)
(1717.3 -1652.42 -3.57699e-14)
(-1563.74 739.506 0)
(935.249 407.922 0)
(1489.65 -270.415 0)
(972.643 -1325.25 3.13664e-14)
(-213.202 -516.017 -4.25045e-13)
(-454.745 1623.65 -8.75913e-15)
(-330.162 609.384 0)
(1718.18 213.058 0)
(-136.996 1110.27 0)
(-26.6754 300.354 -4.45667e-15)
(-259.611 -804.85 5.47847e-13)
(1553.35 -998.669 0)
(-604.25 720.098 -1.32395e-13)
(-3873.52 586.338 -3.11461e-13)
(-1526.4 889.943 1.90328e-13)
(1696.37 -1216.35 2.39539e-14)
(-54.6722 196.699 0)
(1719.7 315.487 0)
(-365.584 -1166.01 -1.43841e-14)
(-451.946 -187.591 4.04528e-13)
(612.975 479.291 2.05597e-13)
(626.824 90.0534 4.02329e-13)
(-168.961 -577.227 -2.57345e-13)
(393.007 100.108 0)
(-4489.88 -3495.32 0)
(-241.718 -732.11 0)
(-185.691 858.694 -9.09226e-16)
(-5755.63 2655.86 -1.35176e-14)
(-379.82 1029.34 0)
(-1270.85 -405.312 5.54079e-13)
(535.86 -463.685 -1.50464e-13)
(-1857.7 1046.18 0)
(-756.874 -494.697 -6.79051e-13)
(-1021 -356.559 2.74016e-13)
(-2319.73 -650.085 -1.71106e-13)
(-1012.07 -182.573 -1.3387e-13)
(-3235.41 -1011.89 -6.09985e-14)
(209.492 517.266 1.42497e-13)
(696.452 -104.901 -2.53645e-14)
(-1441.8 218.432 0)
(-1526.36 -860.972 -2.49035e-14)
(-543.171 679.766 -5.54505e-13)
(-647.306 -516.641 0)
(-392.621 -710.867 0)
(-1237.59 87.2685 2.73909e-13)
(-1018.38 -40.6244 3.00604e-14)
(-191.208 13.5731 0)
(-1297.72 -255.567 1.20531e-13)
(-2590.51 382.124 -3.08282e-14)
(1177.35 -451.413 0)
(-3261.53 -663.907 0)
(-907.314 219.21 -2.9104e-13)
(-2785.21 675.91 3.18311e-13)
(-552.213 -103.39 0)
(2483.1 242.833 1.00812e-13)
(-122.137 -572.57 7.89901e-14)
(-143.466 175.174 1.39191e-13)
(-197.692 48.4328 -2.87043e-13)
(-801.74 -71.6055 -3.62546e-13)
(724.831 -936.189 0)
(305.206 502.964 0)
(1051.6 -101.335 2.1436e-13)
(139.901 -332.065 1.98738e-13)
(1950.36 1026.6 0)
(41.6126 -232.65 -4.18106e-13)
(-623.307 -99.0792 1.17223e-14)
(-268.941 586.804 7.58805e-13)
(-331.742 -57.5731 5.95608e-15)
(-377.665 -413.872 0)
(-1005.19 705.269 -2.08797e-13)
(-1894.49 -248.313 -4.1794e-14)
(344.659 559.367 4.47749e-14)
(-132.106 -114.808 0)
(201.789 -976.429 6.92e-13)
(-257.071 -34.4081 -3.91618e-15)
(872.501 87.2684 -4.87652e-14)
(636.162 -38.0888 -3.12564e-13)
(-1007.23 -195.147 4.10347e-13)
(844.765 140.735 4.95074e-14)
(634.101 20.7545 0)
(140.026 -351.06 -2.55751e-14)
(300.282 550.024 -2.80872e-13)
(983.424 764.784 -2.95455e-13)
(2635.69 -323.819 5.67149e-13)
(658.187 -939.66 3.12762e-13)
(55.6306 581.123 0)
(947.849 303.401 7.34297e-14)
(246.556 -491.493 3.72643e-15)
(614.126 274.765 -3.13577e-13)
(783.705 -33.003 -7.2327e-14)
(1019.51 1567.6 0)
(-850.149 -828.858 0)
(1106.06 48.5996 0)
(556.452 -1153.56 5.8775e-14)
(1933.51 952.489 0)
(-1664.53 -75.8959 6.71536e-13)
(1155.46 303.898 -3.09366e-13)
(-614.204 436.881 1.95687e-13)
(587.607 298.419 3.20537e-13)
(16.8881 678.054 -8.36733e-15)
(1632.07 965.342 2.09606e-13)
(196.23 946.382 -2.19022e-13)
(2055.18 -505.286 -4.4943e-15)
(300.883 149.281 -1.5355e-13)
(-726.894 691.749 7.82358e-14)
(594.498 176.099 0)
(-659.394 500.185 0)
(604.567 367.696 4.14483e-13)
(-73.4023 -318.781 0)
(-891.839 -196.628 0)
(-1092.35 -865.672 -2.89336e-14)
(1256.6 308.357 0)
(-407.124 -56.3389 -5.13419e-14)
(-105.225 48.9594 -3.52722e-13)
(778.033 448.11 4.5039e-13)
(-889.65 -20.7475 0)
(424.741 312.479 4.45686e-15)
(-1290.35 -1629.74 5.0303e-14)
(-212.51 -1356.29 -1.65947e-13)
(504.483 -717.584 -5.53144e-13)
(-1766.17 -853.596 0)
(-506.32 934.172 -6.23773e-13)
(-1533.63 1229.6 -7.82107e-13)
(1189.45 1500.28 0)
(27.163 219.014 -1.36092e-13)
(-975.983 518.884 0)
(-437.046 -257.791 -1.44396e-13)
(-740.617 87.2203 0)
(-742.282 262.323 5.69769e-16)
(1121.88 43.6066 2.26096e-13)
(-1676.96 102.36 -6.86963e-14)
(1453.79 -24.0969 0)
(-176.054 162.935 1.36935e-13)
(789.624 481.348 -2.52907e-13)
(1581.08 141.998 0)
(-139.398 -461.203 -1.33162e-15)
(-35.1967 -431.13 -3.61649e-15)
(-423.987 562.681 0)
(-29.3108 207.843 0)
(767.008 14.7033 -4.26476e-13)
(122.93 38.7345 0)
(-84.269 1063.06 0)
(575.264 236.819 0)
(173.664 46.2376 -1.29818e-13)
(-231.891 415.125 -2.66606e-13)
(824.03 -420.198 1.34169e-14)
(-30.5845 754.208 -8.42076e-14)
(-1002.2 8.67356 0)
(636.971 -68.9244 -8.12529e-14)
(105.737 -1192.51 0)
(127.512 -863.309 -6.33322e-13)
(-1114.59 -455.072 0)
(-1014 1977.41 0)
(-131.38 -1999.54 0)
(-151.25 -466.812 -3.71896e-13)
(-132.487 601.437 -4.58055e-13)
(-400.526 -358.988 0)
(-68.1041 339.696 1.03744e-13)
(-201.255 -703.465 1.39443e-13)
(321.929 106.69 3.1221e-13)
(626.365 -128.629 -3.5861e-14)
(-499.965 -17.0828 0)
(-598.253 -399.224 0)
(768.939 -76.3582 1.31767e-13)
(-1959.55 176.834 3.18081e-13)
(488.816 -213.636 9.36102e-14)
(277.747 240.984 -4.69069e-13)
(-129.544 1359.42 2.71896e-13)
(50.0879 -649.516 0)
(438.082 72.7128 6.34406e-16)
(-110.428 -203.14 -2.84916e-13)
(-719.928 -461.206 -7.25534e-13)
(1121.56 266.594 -1.30232e-13)
(-13.8801 159.294 0)
(559.766 -974.32 -1.09145e-13)
(-1208.91 -1293.05 0)
(-624.233 207.381 1.61643e-13)
(106.618 1213.6 -1.42768e-13)
(-994.31 -115.818 5.31449e-14)
(259.148 -574.332 -2.24905e-13)
(-923.759 988.419 6.5172e-14)
(223.097 677.241 4.58122e-14)
(-2077.19 823.438 0)
(4.61873 148.142 4.27239e-13)
(-701.515 -189.783 0)
(-1816.39 -132.894 7.83237e-13)
(-1256.67 -575.997 -2.14625e-13)
(-3374.77 815.763 0)
(-178.135 -536.804 0)
(-95.7319 605.01 2.15265e-13)
(401.902 130.734 -2.75566e-13)
(-1684.41 821.214 1.34482e-13)
(1167.95 87.2825 6.14699e-13)
(50.8597 103.075 0)
(-1127.92 1631.92 0)
(1260.47 77.0554 0)
(1552.68 -1318.92 -1.47167e-13)
(-494.65 572.437 6.56272e-14)
(-1624.06 -1455.72 -4.82125e-15)
(-2050.91 1271.69 2.00076e-13)
(-662.503 -3.56664 0)
(1106.52 -630.801 0)
(-912.156 750.571 -1.7565e-13)
(904.292 758.061 5.2671e-14)
(-1489.58 1068.41 1.15857e-13)
(-1392.15 398.909 0)
(-425.196 50.1484 -1.53218e-13)
(-887.505 67.2647 -7.59264e-14)
(-952.059 673.359 -2.36175e-13)
(-2824.64 327.006 0)
(-787.91 177.58 2.87372e-13)
(-878.082 -128.232 -3.06232e-13)
(-1794.73 -865.705 7.58992e-14)
(-966.684 904.543 4.6024e-14)
(-646.82 -621.597 0)
(60.3196 -968.906 0)
(-1005.82 -1347.16 3.27548e-14)
(-1387.33 665.374 4.19713e-13)
(213.32 702.66 1.69704e-15)
(-541.858 -585.009 1.77957e-14)
(-47.1502 -319.21 -1.75297e-13)
(99.3066 -9.14001 0)
(-586.279 -743.009 -2.49412e-13)
(-370.108 -802.472 -1.36232e-15)
(435.742 -172.167 0)
(-1196.12 632.158 -4.10361e-14)
(1112.8 -779.659 -3.98729e-13)
(1552.8 -316.232 2.7797e-13)
(-480.512 -296.459 2.99937e-13)
(1444.02 530.902 0)
(157.088 -472.527 0)
(109.257 -3.92671 -1.07859e-13)
(496.939 -40.5403 0)
(104.804 544.595 -1.26975e-13)
(-66.7758 -478.859 0)
(18.9649 814.839 0)
(1139.4 401.78 -3.48426e-13)
(221.36 -42.1971 -3.6691e-14)
(1431.1 751.591 2.36159e-13)
(-1241.03 819.334 -4.22818e-13)
(796.184 590.678 -9.29009e-14)
(-582.782 -448.433 1.74989e-13)
(191.545 -555.26 -1.02669e-13)
(195.842 -12.331 1.93251e-13)
(279.401 85.1748 1.87932e-13)
(-786.861 -118.103 -4.78489e-13)
(667.12 -56.7899 -4.34374e-14)
(-783.904 1184.86 7.05735e-13)
(373.909 554.011 1.6316e-14)
(-1486.89 -50.6504 1.85217e-13)
(-604.569 587.705 0)
(-1339.02 1023.33 0)
(245.209 -64.3162 2.5049e-13)
(570.312 -689.285 -4.84237e-14)
(1591.15 668.737 0)
(-2056.05 -1270.14 3.50536e-13)
(-922.764 -84.1411 -1.36648e-13)
(-1659.87 -485.777 3.5262e-14)
(-939.458 -121.987 0)
(-323.585 622.648 -3.507e-14)
(1320.61 1106.79 -1.13977e-13)
(-289.183 581.594 -1.82565e-15)
(-264.011 1040.58 -3.5188e-13)
(1521.44 857.049 -2.76915e-13)
(1106.22 838.633 0)
(881.701 291.545 -7.09543e-16)
(774.891 -612.776 -2.36686e-13)
(-650.988 -563.718 -3.90687e-13)
(-883.078 -561.477 -1.91467e-13)
(-692.92 414.819 -5.12674e-13)
(-2012.44 -460.288 6.20945e-13)
(1390.84 -938.825 1.26142e-14)
(-1674.78 480.149 -2.57734e-13)
(-491.88 510.756 5.29466e-14)
(-324.74 184.582 3.57348e-13)
(-2947.31 -169.442 -6.62207e-14)
(-774.055 -126.68 2.39358e-13)
(-462.182 -53.0998 2.26273e-13)
(-2458.44 145.157 0)
(1994.65 250.442 0)
(1083.1 636.463 6.18137e-14)
(906.467 204.519 0)
(-20.0264 275.117 -5.684e-13)
(564.625 241.352 2.81782e-13)
(5.19932 -175.387 -7.41709e-14)
(-1585.38 239.907 -3.0214e-13)
(-2902.48 -1093.97 -1.29651e-13)
(-3981.28 1482.16 0)
(-1111.5 -218.418 0)
(142.093 2.53573 0)
(-27.9112 228.633 0)
(2102.01 -570.445 4.56881e-15)
(-1177.69 -517.152 0)
(69.741 432.728 -1.53863e-13)
(1612.02 -495.298 7.29713e-14)
(-681.797 247.776 -2.88351e-13)
(643.957 1026.64 0)
(-18.4598 -640.953 4.61022e-13)
(1012.94 1066.56 0)
(1712.98 -982.209 -8.62273e-14)
(-1832.97 95.9351 -5.51906e-14)
(1052.29 -870.91 -6.27137e-15)
(434.536 633.493 1.45447e-13)
(-1162.37 -70.0675 1.40039e-13)
(-2216.92 115.893 1.08372e-13)
(1492.37 -276.343 -4.33601e-14)
(-14.4956 65.494 0)
(-517.836 279.165 0)
(-835.72 244.586 6.16626e-14)
(-319.314 -719.673 0)
(-946.439 -150.734 -3.13281e-13)
(1931.07 -200.579 5.05706e-14)
(86.195 -619.498 -3.77677e-14)
(-930.987 -130.88 2.78599e-14)
(-3705.83 -796.569 2.86269e-14)
(1043.86 -939.208 -1.41914e-13)
(-833.019 -80.4218 -2.36131e-13)
(627.14 1567.83 -9.32221e-14)
(284.449 826.728 6.65122e-14)
(430.917 195.28 -3.19839e-13)
(2243.98 -933.471 0)
(2115.13 -937.32 -1.86732e-13)
(1097.58 -494.09 1.50032e-14)
(709.256 174.56 2.96081e-13)
(766.476 925.287 -4.46991e-13)
(213.817 801.422 0)
(1833.13 -330.601 -3.0447e-13)
(-595.387 469.46 0)
(-907.471 91.015 -4.1978e-13)
(1824.66 325.409 7.3288e-14)
(1546.71 8.98358 0)
(538.616 250.247 9.94025e-14)
(-570.998 -558.739 -5.57622e-14)
(-804.641 265.364 0)
(1754.04 -649.581 0)
(-998.078 819.563 -3.31685e-13)
(433.594 -492.267 -4.42354e-14)
(1685.79 485.607 8.53706e-14)
(-409.282 358.279 -6.02959e-13)
(1265.98 -363.669 0)
(46.403 993.409 -2.15292e-13)
(277.705 645.363 0)
(216.685 -567.947 1.61442e-13)
(-604.797 -240.428 -9.843e-15)
(-371.053 259.666 -3.58888e-13)
(-364.352 -353.937 2.78257e-13)
(214.901 -439.531 1.02477e-13)
(573.568 -485.615 0)
(176.299 -1560.04 0)
(-747.436 -734.279 1.82355e-13)
(916.761 -826.681 -3.58668e-13)
(-1174.62 174.992 2.11401e-13)
(965.983 -344.156 2.38621e-13)
(-681.348 197.728 0)
(-538.105 413.538 0)
(-1205.01 -145.676 1.87863e-13)
(-112.501 170.499 -1.97231e-13)
(758.641 -847.588 0)
(-1316.7 410.106 -6.56529e-14)
(-369.382 -385.254 0)
(-910.517 -258.409 -2.09964e-13)
(1915.11 1150.54 -5.89164e-14)
(-453.639 -486.906 1.33952e-13)
(-536.91 23.0389 -1.13351e-13)
(725.675 -348.912 0)
(33.4849 940.84 -1.29571e-13)
(-905.003 261.153 0)
(-20.6151 -148.86 -1.48766e-13)
(1107.18 182.311 1.71252e-13)
(-1798.74 -103.088 2.84986e-13)
(341.577 10.1581 1.10618e-13)
(-446.608 -173.956 3.97883e-14)
(1152.75 -1361.9 -1.37904e-14)
(410.394 727.696 6.57937e-14)
(677.321 405.707 -9.61791e-14)
(1265.37 1189.48 0)
(-66.9934 342.624 2.04872e-13)
(2812.76 1682.45 0)
(-1617.98 -573.547 -7.44442e-14)
(1359.75 -583.501 2.41644e-13)
(394.991 -849.12 0)
(-2773.85 341.079 0)
(465.009 328.215 1.51296e-13)
(-61.7604 -776.173 0)
(653.623 -304.339 -1.30133e-13)
(296.315 -452.071 1.70065e-13)
(-1031.26 178.171 0)
(-212.134 -423.319 2.24455e-13)
(358.021 -360.068 -3.9621e-13)
(-1028.51 -236.883 -7.26079e-13)
(262.642 48.014 -2.26872e-13)
(940.073 668.224 0)
(-626.407 -149.908 3.49011e-13)
(2333.33 -792.895 2.21142e-13)
(471.575 195.876 2.79707e-13)
(86.5046 491.229 4.7571e-15)
(625.054 -235.915 -2.58117e-13)
(913.918 149.822 2.4048e-13)
(-831.84 -485.483 0)
(-644.662 263.261 0)
(990.929 -537.912 8.59407e-14)
(70.3974 -371.82 -1.42097e-14)
(10.8819 618.885 -6.2268e-13)
(-1549.58 -786.891 -1.09418e-13)
(1292.1 -287.819 -2.27279e-13)
(-277.966 -486.897 -3.81499e-14)
(925.437 -867.604 1.86783e-13)
(704.004 -232.95 -1.95094e-13)
(552.853 208.02 2.16913e-13)
(297.406 127.472 5.67477e-13)